 Entering Gaussian System, Link 0=g09
 Input=ts-irc-F.com
 Output=ts-irc-F.log
 Initial command:
 /Users/talipovmr/usr/local/g09/l1.exe /tmp/Gau-98038.inp -scrdir=/tmp/
 Entering Link 1 = /Users/talipovmr/usr/local/g09/l1.exe PID=     98039.
  
 Copyright (c) 1988,1990,1992,1993,1995,1998,2003,2009, Gaussian, Inc.
                  All Rights Reserved.
  
 This is part of the Gaussian(R) 09 program.  It is based on
 the Gaussian(R) 03 system (copyright 2003, Gaussian, Inc.),
 the Gaussian(R) 98 system (copyright 1998, Gaussian, Inc.),
 the Gaussian(R) 94 system (copyright 1995, Gaussian, Inc.),
 the Gaussian 92(TM) system (copyright 1992, Gaussian, Inc.),
 the Gaussian 90(TM) system (copyright 1990, Gaussian, Inc.),
 the Gaussian 88(TM) system (copyright 1988, Gaussian, Inc.),
 the Gaussian 86(TM) system (copyright 1986, Carnegie Mellon
 University), and the Gaussian 82(TM) system (copyright 1983,
 Carnegie Mellon University). Gaussian is a federally registered
 trademark of Gaussian, Inc.
  
 This software contains proprietary and confidential information,
 including trade secrets, belonging to Gaussian, Inc.
  
 This software is provided under written license and may be
 used, copied, transmitted, or stored only in accord with that
 written license.
  
 The following legend is applicable only to US Government
 contracts under FAR:
  
                    RESTRICTED RIGHTS LEGEND
  
 Use, reproduction and disclosure by the US Government is
 subject to restrictions as set forth in subparagraphs (a)
 and (c) of the Commercial Computer Software - Restricted
 Rights clause in FAR 52.227-19.
  
 Gaussian, Inc.
 340 Quinnipiac St., Bldg. 40, Wallingford CT 06492
  
  
 ---------------------------------------------------------------
 Warning -- This program may not be used in any manner that
 competes with the business of Gaussian, Inc. or will provide
 assistance to any competitor of Gaussian, Inc.  The licensee
 of this program is prohibited from giving any competitor of
 Gaussian, Inc. access to this program.  By using this program,
 the user acknowledges that Gaussian, Inc. is engaged in the
 business of creating and licensing software in the field of
 computational chemistry and represents and warrants to the
 licensee that it is not a competitor of Gaussian, Inc. and that
 it will not use this program in any manner prohibited above.
 ---------------------------------------------------------------
  

 Cite this work as:
 Gaussian 09, Revision A.02,
 M. J. Frisch, G. W. Trucks, H. B. Schlegel, G. E. Scuseria, 
 M. A. Robb, J. R. Cheeseman, G. Scalmani, V. Barone, B. Mennucci, 
 G. A. Petersson, H. Nakatsuji, M. Caricato, X. Li, H. P. Hratchian, 
 A. F. Izmaylov, J. Bloino, G. Zheng, J. L. Sonnenberg, M. Hada, 
 M. Ehara, K. Toyota, R. Fukuda, J. Hasegawa, M. Ishida, T. Nakajima, 
 Y. Honda, O. Kitao, H. Nakai, T. Vreven, J. A. Montgomery, Jr., 
 J. E. Peralta, F. Ogliaro, M. Bearpark, J. J. Heyd, E. Brothers, 
 K. N. Kudin, V. N. Staroverov, R. Kobayashi, J. Normand, 
 K. Raghavachari, A. Rendell, J. C. Burant, S. S. Iyengar, J. Tomasi, 
 M. Cossi, N. Rega, J. M. Millam, M. Klene, J. E. Knox, J. B. Cross, 
 V. Bakken, C. Adamo, J. Jaramillo, R. Gomperts, R. E. Stratmann, 
 O. Yazyev, A. J. Austin, R. Cammi, C. Pomelli, J. W. Ochterski, 
 R. L. Martin, K. Morokuma, V. G. Zakrzewski, G. A. Voth, 
 P. Salvador, J. J. Dannenberg, S. Dapprich, A. D. Daniels, 
 O. Farkas, J. B. Foresman, J. V. Ortiz, J. Cioslowski, 
 and D. J. Fox, Gaussian, Inc., Wallingford CT, 2009.
 
 ******************************************
 Gaussian 09:  EM64M-G09RevA.02 11-Jun-2009
                 7-Jan-2013 
 ******************************************
 %nproc=2
 Will use up to    2 processors via shared memory.
 %mem=1Gb
 %chk=ts-irc-F.chk
 ----------------------------------------------------------------------
 #p pm3 irc(lqa,calcfc,forward,maxpoint=200,stepsize=5,maxcyc=200) scf(
 xqc,maxcyc=200,fermi) #p geom(allcheck)
 ----------------------------------------------------------------------
 1/6=200,10=4,14=-1,18=20,22=1,26=1,29=7,38=1,39=5,42=200,44=3,45=2/1,23;
 2/9=110,12=2,29=1,40=1/2;
 3/5=2,14=-4,16=1,25=1,41=800000,71=2/1,2,3;
 4/35=1/1;
 5/5=2,7=200,8=3,13=1,22=13,35=1,38=5/2,8;
 8/6=4,10=90,11=11/1;
 11/6=1,8=1,9=11,15=111,16=1/1,2,10;
 10/6=1,7=6,13=1/2;
 6/7=2,8=2,9=2,10=2,28=1/1;
 7/10=1,18=20,25=1/1,2,3,16;
 1/6=200,10=4,14=-1,18=20,22=1,39=5,42=200,44=3,45=2/23(3);
 2/9=110,29=1/2;
 7/9=1,25=1,44=-1/16;
 99//99;
 2/9=110,29=1/2;
 3/5=2,14=-2,16=1,25=1,41=800000,71=2,135=20/1,2,3;
 4/5=5,16=3,35=1/1;
 5/5=2,7=200,8=3,13=1,22=13,35=1,38=5/2,8;
 8/6=4,10=90,11=11/1;
 11/6=1,8=1,9=11,15=111,16=1/1,2,10;
 10/6=1,7=6,13=1/2;
 7/10=1,18=20,25=1/1,2,3,16;
 1/6=200,14=-1,18=20,22=1,39=5,42=200,44=3,45=2/23(-8);
 2/9=110,29=1/2;
 6/7=2,8=2,9=2,10=2,19=2,28=1/1;
 7/9=1,25=1,44=-1/16;
 99/9=1/99;
 Leave Link    1 at Mon Jan  7 22:21:28 2013, MaxMem=  134217728 cpu:       0.4
 (Enter /Users/talipovmr/usr/local/g09/l101.exe)

 

 Redundant internal coordinates taken from checkpoint file:
 ts-irc-F.chk
 Charge =  0 Multiplicity = 1
 O,0,0.9151932448,-0.5584056197,-0.0212396942
 N,0,-0.0062113131,0.5204705166,0.0421643833
 O,0,-1.1048476843,0.1460323548,-0.0303104899
 H,0,0.9600757526,-0.8086172517,-0.9360541991
 Recover connectivity data from disk.
                    Isotopes and Nuclear Properties:
 (Nuclear quadrupole moments (NQMom) in fm**2, nuclear magnetic moments (NMagM)
  in nuclear magnetons)

  Atom         1           2           3           4
 IAtWgt=          16          14          16           1
 AtmWgt=  15.9949146  14.0030740  15.9949146   1.0078250
 NucSpn=           0           2           0           1
 AtZEff=  -6.0000000  -4.9000000  -6.0000000  -1.0000000
 NQMom=    0.0000000   2.0440000   0.0000000   0.0000000
 NMagM=    0.0000000   0.4037610   0.0000000   2.7928460
 Leave Link  101 at Mon Jan  7 22:21:28 2013, MaxMem=  134217728 cpu:       0.3
 (Enter /Users/talipovmr/usr/local/g09/l123.exe)
 IRC-IRC-IRC-IRC-IRC-IRC-IRC-IRC-IRC-IRC-IRC-IRC-IRC-IRC-IRC-IRC-IRC-IRC
 ------------------------------------------------------------------------
 INPUT DATA FOR L123
 ------------------------------------------------------------------------
 GENERAL PARAMETERS:
 Rxn path following direction = Forward
 Maximum points per path      = 200
 Step size                    =   0.050 bohr
 Integration scheme           = LQA - NO CORRECTIONS                
 Initial Hessian              = CalcFC
 Hessian eveluation           = All updating
    Hessian updating method   = Bofill                              
 ------------------------------------------------------------------------
 IRC-IRC-IRC-IRC-IRC-IRC-IRC-IRC-IRC-IRC-IRC-IRC-IRC-IRC-IRC-IRC-IRC-IRC
 Leave Link  123 at Mon Jan  7 22:21:28 2013, MaxMem=  134217728 cpu:       0.0
 (Enter /Users/talipovmr/usr/local/g09/l202.exe)
                          Input orientation:                          
 ---------------------------------------------------------------------
 Center     Atomic      Atomic             Coordinates (Angstroms)
 Number     Number       Type             X           Y           Z
 ---------------------------------------------------------------------
      1          8           0        0.915193   -0.558406   -0.021240
      2          7           0       -0.006211    0.520471    0.042164
      3          8           0       -1.104848    0.146032   -0.030310
      4          1           0        0.960076   -0.808617   -0.936054
 ---------------------------------------------------------------------
                    Distance matrix (angstroms):
                    1          2          3          4
     1  O    0.000000
     2  N    1.420204   0.000000
     3  O    2.139365   1.162952   0.000000
     4  H    0.949477   1.912354   2.448599   0.000000
 Symmetry turned off by external request.
 Stoichiometry    HNO2
 Framework group  C1[X(HNO2)]
 Deg. of freedom     6
 Full point group                 C1      NOp   1
 Rotational constants (GHZ):     84.7790842     12.8973878     11.5590697
 Leave Link  202 at Mon Jan  7 22:21:28 2013, MaxMem=  134217728 cpu:       0.0
 (Enter /Users/talipovmr/usr/local/g09/l301.exe)
 Standard basis: VSTO-6G (5D, 7F)
 Ernie: Thresh=  0.10000D-02 Tol=  0.10000D-05 Strict=F.
  NNHCO=     0 NNPyr=     0 NCTC=     0               EPep=         0.000000000
    EC=        32.006924313  ECS=         1.102226562   EG=         0.088715345
   EHC=         0.000000000  EAt=       -27.538897446  AtH=         0.452933404
 EPDDG=         0.000000000  ECC=        33.197866221 EAtT=        27.991830850
 Integral buffers will be    131072 words long.
 Regular integral format.
 Two-electron integral symmetry is turned off.
    13 basis functions,    78 primitive gaussians,    13 cartesian basis functions
     9 alpha electrons        9 beta electrons
       nuclear repulsion energy        61.1896970714 Hartrees.
 IExCor=    0 DFT=F Ex=HF Corr=None ExCW=0 ScaHFX=  1.000000
 ScaDFX=  1.000000  1.000000  1.000000  1.000000 ScalE2=  1.000000  1.000000
 IRadAn=      0 IRanWt=     -1 IRanGd=            0 ICorTp=0
 Leave Link  301 at Mon Jan  7 22:21:28 2013, MaxMem=  134217728 cpu:       0.1
 (Enter /Users/talipovmr/usr/local/g09/l302.exe)
 Do NDO integrals.
 NPDir=0 NMtPBC=     1 NCelOv=     1 NCel=       1 NClECP=     1 NCelD=      1
         NCelK=      1 NCelE2=     1 NClLst=     1 CellRange=     0.0.
 One-electron integrals computed using PRISM.
 NBasis=    13 RedAO= F  NBF=    13
 NBsUse=    13 1.00D-04 NBFU=    13
 Leave Link  302 at Mon Jan  7 22:21:28 2013, MaxMem=  134217728 cpu:       0.2
 (Enter /Users/talipovmr/usr/local/g09/l303.exe)
 DipDrv:  MaxL=1.
 Leave Link  303 at Mon Jan  7 22:21:28 2013, MaxMem=  134217728 cpu:       0.1
 (Enter /Users/talipovmr/usr/local/g09/l401.exe)
 Simple Huckel Guess.
 Leave Link  401 at Mon Jan  7 22:21:28 2013, MaxMem=  134217728 cpu:       0.1
 (Enter /Users/talipovmr/usr/local/g09/l502.exe)
 Closed shell SCF:
 Requested convergence on RMS density matrix=1.00D-08 within 128 cycles.
 Requested convergence on MAX density matrix=1.00D-06.
 Requested convergence on             energy=1.00D-06.
 Level shift goal  0.100 maximum shift  0.100.
 No special actions if energy rises.
 Dynamic level shift is on during FON iterations.
 Using DIIS extrapolation, IDIIS=    10.
 Overlap will be assumed to be unity.
 Two-electron integral symmetry not used.
 Keep J ints in memory in canonical form, NReq=879130.
 IEnd=       78620 IEndB=       78620 NGot=   134217728 MDV=   134155687
 LenX=   134155687 LenY=   134154805
 Symmetry not used in FoFDir.
 MinBra= 0 MaxBra= 1 Meth= 9.
 IRaf=       0 NMat=   1 IRICut=       1 DoRegI=T DoRafI=F ISym2E= 0 JSym2E=0.

 Cycle   1  Pass 1  IDiag  1:
 E= 0.324988625576268    
 DIIS: error= 7.77D-02 at cycle   1 NSaved=   1.
 NSaved= 1 IEnMin= 1 EnMin= 0.324988625576268     IErMin= 1 ErrMin= 7.77D-02
 ErrMax= 7.77D-02 EMaxC= 1.00D+00 BMatC= 1.29D-01 BMatP= 1.29D-01
 IDIUse=1 WtCom= 1.00D+00 WtEn= 0.00D+00
 Coeff-Com:  0.100D+01
 Coeff:      0.100D+01
 Gap=     0.399 Goal=     0.100 Shift=    0.000
 T= 2067. Gap= 0.391 NK=0 IS=    1 IE=   13
          NO(<0.9)=   0  NV(>0.1)=   0   9.00e < EF 0.00e >EF  Err=1.4D-13
 GapD=    0.399 DampG=1.000 DampE=0.500 DampFc=0.5000 IDamp=-1.
 Damping current iteration by 5.00D-01
 RMSDP=3.81D-02 MaxDP=1.61D-01              OVMax= 0.00D+00

 Cycle   2  Pass 1  IDiag  1:
 E= 0.186634252692628     Delta-E=       -0.138354372884 Rises=F Damp=T
 DIIS: error= 4.66D-02 at cycle   2 NSaved=   2.
 NSaved= 2 IEnMin= 2 EnMin= 0.186634252692628     IErMin= 2 ErrMin= 4.66D-02
 ErrMax= 4.66D-02 EMaxC= 1.00D+00 BMatC= 5.00D-02 BMatP= 1.29D-01
 IDIUse=1 WtCom= 1.00D+00 WtEn= 0.00D+00
 Coeff-Com: -0.160D+01 0.260D+01
 Coeff:     -0.160D+01 0.260D+01
 Gap=     0.388 Goal=     0.100 Shift=    0.000
 T= 1981. Gap= 0.382 NK=0 IS=    1 IE=   13
          NO(<0.9)=   0  NV(>0.1)=   0   9.00e < EF 0.00e >EF  Err=4.6D-12
 GapD=    0.388 DampG=1.000 DampE=0.500 DampFc=0.5000 IDamp=-1.
 Damping current iteration by 5.00D-01
 RMSDP=3.23D-02 MaxDP=1.20D-01 DE=-1.38D-01 OVMax= 0.00D+00

 Cycle   3  Pass 1  IDiag  1:
 E= 0.100185488618294     Delta-E=       -0.086448764074 Rises=F Damp=T
 DIIS: error= 2.32D-02 at cycle   3 NSaved=   3.
 NSaved= 3 IEnMin= 3 EnMin= 0.100185488618294     IErMin= 3 ErrMin= 2.32D-02
 ErrMax= 2.32D-02 EMaxC= 1.00D+00 BMatC= 1.31D-02 BMatP= 5.00D-02
 IDIUse=1 WtCom= 1.00D+00 WtEn= 0.00D+00
 Coeff-Com:  0.839D+00-0.291D+01 0.307D+01
 Coeff:      0.839D+00-0.291D+01 0.307D+01
 Gap=     0.384 Goal=     0.100 Shift=    0.000
 T= 1793. Gap= 0.384 NK=0 IS=    1 IE=   13
          NO(<0.9)=   0  NV(>0.1)=   0   9.00e < EF 0.00e >EF  Err=7.3D-11
 GapD=    0.384 DampG=1.000 DampE=0.500 DampFc=0.5000 IDamp=-1.
 Damping current iteration by 5.00D-01
 RMSDP=1.89D-02 MaxDP=6.46D-02 DE=-8.64D-02 OVMax= 0.00D+00

 Cycle   4  Pass 1  IDiag  1:
 E= 0.484087429891531E-01 Delta-E=       -0.051776745629 Rises=F Damp=T
 DIIS: error= 1.15D-02 at cycle   4 NSaved=   4.
 NSaved= 4 IEnMin= 4 EnMin= 0.484087429891531E-01 IErMin= 4 ErrMin= 1.15D-02
 ErrMax= 1.15D-02 EMaxC= 1.00D+00 BMatC= 3.26D-03 BMatP= 1.31D-02
 IDIUse=1 WtCom= 1.00D+00 WtEn= 0.00D+00
 Coeff-Com:  0.323D-02 0.174D+00-0.152D+01 0.234D+01
 Coeff:      0.323D-02 0.174D+00-0.152D+01 0.234D+01
 Gap=     0.384 Goal=     0.100 Shift=    0.000
 T= 1436. Gap= 0.384 NK=0 IS=    1 IE=   13
          NO(<0.9)=   0  NV(>0.1)=   0   9.00e < EF 0.00e >EF  Err=1.4D-13
 GapD=    0.384 DampG=1.000 DampE=0.500 DampFc=0.5000 IDamp=-1.
 Damping current iteration by 5.00D-01
 RMSDP=9.88D-03 MaxDP=3.27D-02 DE=-5.18D-02 OVMax= 0.00D+00

 Cycle   5  Pass 1  IDiag  1:
 E= 0.193794477156430E-01 Delta-E=       -0.029029295274 Rises=F Damp=T
 DIIS: error= 5.75D-03 at cycle   5 NSaved=   5.
 NSaved= 5 IEnMin= 5 EnMin= 0.193794477156430E-01 IErMin= 5 ErrMin= 5.75D-03
 ErrMax= 5.75D-03 EMaxC= 1.00D+00 BMatC= 8.14D-04 BMatP= 3.26D-03
 IDIUse=1 WtCom= 1.00D+00 WtEn= 0.00D+00
 Coeff-Com: -0.294D-01 0.457D-01 0.400D+00-0.218D+01 0.276D+01
 Coeff:     -0.294D-01 0.457D-01 0.400D+00-0.218D+01 0.276D+01
 Gap=     0.384 Goal=     0.100 Shift=    0.000
 T= 1017. Gap= 0.384 NK=0 IS=    1 IE=   13
          NO(<0.9)=   0  NV(>0.1)=   0   9.00e < EF 0.00e >EF  Err=0.0D+00
 GapD=    0.384 DampG=1.000 DampE=1.000 DampFc=1.0000 IDamp=-1.
 RMSDP=5.02D-03 MaxDP=1.64D-02 DE=-2.90D-02 OVMax= 0.00D+00

 Cycle   6  Pass 1  IDiag  3:
 E=-0.120179498795281E-01 Delta-E=       -0.031397397595 Rises=F Damp=F
 DIIS: error= 1.33D-04 at cycle   6 NSaved=   6.
 NSaved= 6 IEnMin= 6 EnMin=-0.120179498795281E-01 IErMin= 6 ErrMin= 1.33D-04
 ErrMax= 1.33D-04 EMaxC= 1.00D+00 BMatC= 2.04D-07 BMatP= 8.14D-04
 IDIUse=1 WtCom= 1.00D+00 WtEn= 0.00D+00
 Coeff-Com:  0.107D-01-0.219D-01-0.133D+00 0.118D+01-0.179D+01 0.176D+01
 Coeff:      0.107D-01-0.219D-01-0.133D+00 0.118D+01-0.179D+01 0.176D+01
 Gap=     0.384 Goal=     0.100 Shift=    0.000
 RMSDP=2.27D-04 MaxDP=1.11D-03 DE=-3.14D-02 OVMax= 0.00D+00

 Cycle   7  Pass 1  IDiag  3:
 E=-0.120206130910461E-01 Delta-E=       -0.000002663212 Rises=F Damp=F
 DIIS: error= 6.77D-05 at cycle   7 NSaved=   7.
 NSaved= 7 IEnMin= 7 EnMin=-0.120206130910461E-01 IErMin= 7 ErrMin= 6.77D-05
 ErrMax= 6.77D-05 EMaxC= 1.00D+00 BMatC= 4.98D-08 BMatP= 2.04D-07
 IDIUse=1 WtCom= 1.00D+00 WtEn= 0.00D+00
 Coeff-Com: -0.351D-03-0.399D-03 0.576D-01-0.550D+00 0.882D+00-0.132D+01
 Coeff-Com:  0.193D+01
 Coeff:     -0.351D-03-0.399D-03 0.576D-01-0.550D+00 0.882D+00-0.132D+01
 Coeff:      0.193D+01
 Gap=     0.384 Goal=     0.100 Shift=    0.000
 RMSDP=1.55D-04 MaxDP=7.96D-04 DE=-2.66D-06 OVMax= 0.00D+00

 Cycle   8  Pass 1  IDiag  3:
 E=-0.120214847537525E-01 Delta-E=       -0.000000871663 Rises=F Damp=F
 DIIS: error= 2.67D-05 at cycle   8 NSaved=   8.
 NSaved= 8 IEnMin= 8 EnMin=-0.120214847537525E-01 IErMin= 8 ErrMin= 2.67D-05
 ErrMax= 2.67D-05 EMaxC= 1.00D+00 BMatC= 1.10D-08 BMatP= 4.98D-08
 IDIUse=1 WtCom= 1.00D+00 WtEn= 0.00D+00
 Coeff-Com: -0.359D-04-0.123D-02-0.189D-01 0.231D+00-0.378D+00 0.661D+00
 Coeff-Com: -0.150D+01 0.201D+01
 Coeff:     -0.359D-04-0.123D-02-0.189D-01 0.231D+00-0.378D+00 0.661D+00
 Coeff:     -0.150D+01 0.201D+01
 Gap=     0.384 Goal=     0.100 Shift=    0.000
 RMSDP=9.24D-05 MaxDP=4.49D-04 DE=-8.72D-07 OVMax= 0.00D+00

 Cycle   9  Pass 1  IDiag  3:
 E=-0.120216935048987E-01 Delta-E=       -0.000000208751 Rises=F Damp=F
 DIIS: error= 5.35D-06 at cycle   9 NSaved=   9.
 NSaved= 9 IEnMin= 9 EnMin=-0.120216935048987E-01 IErMin= 9 ErrMin= 5.35D-06
 ErrMax= 5.35D-06 EMaxC= 1.00D+00 BMatC= 1.29D-09 BMatP= 1.10D-08
 IDIUse=1 WtCom= 1.00D+00 WtEn= 0.00D+00
 Coeff-Com:  0.140D-03 0.987D-03 0.425D-02-0.675D-01 0.109D+00-0.223D+00
 Coeff-Com:  0.675D+00-0.132D+01 0.182D+01
 Coeff:      0.140D-03 0.987D-03 0.425D-02-0.675D-01 0.109D+00-0.223D+00
 Coeff:      0.675D+00-0.132D+01 0.182D+01
 Gap=     0.384 Goal=     0.100 Shift=    0.000
 RMSDP=2.90D-05 MaxDP=1.20D-04 DE=-2.09D-07 OVMax= 0.00D+00

 Cycle  10  Pass 1  IDiag  3:
 E=-0.120217123300108E-01 Delta-E=       -0.000000018825 Rises=F Damp=F
 DIIS: error= 1.41D-06 at cycle  10 NSaved=  10.
 NSaved=10 IEnMin=10 EnMin=-0.120217123300108E-01 IErMin=10 ErrMin= 1.41D-06
 ErrMax= 1.41D-06 EMaxC= 1.00D+00 BMatC= 7.73D-11 BMatP= 1.29D-09
 IDIUse=1 WtCom= 1.00D+00 WtEn= 0.00D+00
 Coeff-Com:  0.144D-03-0.115D-02-0.786D-03 0.282D-01-0.464D-01 0.873D-01
 Coeff-Com: -0.254D+00 0.526D+00-0.930D+00 0.159D+01
 Coeff:      0.144D-03-0.115D-02-0.786D-03 0.282D-01-0.464D-01 0.873D-01
 Coeff:     -0.254D+00 0.526D+00-0.930D+00 0.159D+01
 Gap=     0.384 Goal=     0.100 Shift=    0.000
 RMSDP=4.53D-06 MaxDP=1.55D-05 DE=-1.88D-08 OVMax= 0.00D+00

 Cycle  11  Pass 1  IDiag  3:
 E=-0.120217130332776E-01 Delta-E=       -0.000000000703 Rises=F Damp=F
 DIIS: error= 3.08D-07 at cycle  11 NSaved=  11.
 NSaved=11 IEnMin=11 EnMin=-0.120217130332776E-01 IErMin=11 ErrMin= 3.08D-07
 ErrMax= 3.08D-07 EMaxC= 1.00D+00 BMatC= 3.58D-12 BMatP= 7.73D-11
 IDIUse=1 WtCom= 1.00D+00 WtEn= 0.00D+00
 Coeff-Com: -0.866D-04 0.666D-03-0.257D-03-0.100D-01 0.170D-01-0.352D-01
 Coeff-Com:  0.112D+00-0.248D+00 0.465D+00-0.924D+00 0.162D+01
 Coeff:     -0.866D-04 0.666D-03-0.257D-03-0.100D-01 0.170D-01-0.352D-01
 Coeff:      0.112D+00-0.248D+00 0.465D+00-0.924D+00 0.162D+01
 Gap=     0.384 Goal=     0.100 Shift=    0.000
 RMSDP=8.34D-07 MaxDP=2.88D-06 DE=-7.03D-10 OVMax= 0.00D+00

 Cycle  12  Pass 1  IDiag  3:
 E=-0.120217130614932E-01 Delta-E=       -0.000000000028 Rises=F Damp=F
 DIIS: error= 8.33D-08 at cycle  12 NSaved=  12.
 NSaved=12 IEnMin=12 EnMin=-0.120217130614932E-01 IErMin=12 ErrMin= 8.33D-08
 ErrMax= 8.33D-08 EMaxC= 1.00D+00 BMatC= 1.84D-13 BMatP= 3.58D-12
 IDIUse=1 WtCom= 1.00D+00 WtEn= 0.00D+00
 Coeff-Com:  0.272D-04-0.220D-03 0.253D-03 0.175D-02-0.317D-02 0.804D-02
 Coeff-Com: -0.299D-01 0.732D-01-0.148D+00 0.318D+00-0.717D+00 0.150D+01
 Coeff:      0.272D-04-0.220D-03 0.253D-03 0.175D-02-0.317D-02 0.804D-02
 Coeff:     -0.299D-01 0.732D-01-0.148D+00 0.318D+00-0.717D+00 0.150D+01
 Gap=     0.384 Goal=     0.100 Shift=    0.000
 RMSDP=1.59D-07 MaxDP=5.35D-07 DE=-2.82D-11 OVMax= 0.00D+00

 Cycle  13  Pass 1  IDiag  3:
 E=-0.120217130628504E-01 Delta-E=       -0.000000000001 Rises=F Damp=F
 DIIS: error= 2.56D-08 at cycle  13 NSaved=  13.
 NSaved=13 IEnMin=13 EnMin=-0.120217130628504E-01 IErMin=13 ErrMin= 2.56D-08
 ErrMax= 2.56D-08 EMaxC= 1.00D+00 BMatC= 1.29D-14 BMatP= 1.84D-13
 IDIUse=1 WtCom= 1.00D+00 WtEn= 0.00D+00
 Coeff-Com: -0.140D-04 0.106D-03-0.106D-03-0.971D-03 0.173D-02-0.416D-02
 Coeff-Com:  0.145D-01-0.341D-01 0.683D-01-0.146D+00 0.334D+00-0.868D+00
 Coeff-Com:  0.163D+01
 Coeff:     -0.140D-04 0.106D-03-0.106D-03-0.971D-03 0.173D-02-0.416D-02
 Coeff:      0.145D-01-0.341D-01 0.683D-01-0.146D+00 0.334D+00-0.868D+00
 Coeff:      0.163D+01
 Gap=     0.384 Goal=     0.100 Shift=    0.000
 RMSDP=4.23D-08 MaxDP=1.92D-07 DE=-1.36D-12 OVMax= 0.00D+00

 Cycle  14  Pass 1  IDiag  3:
 E=-0.120217130629854E-01 Delta-E=        0.000000000000 Rises=F Damp=F
 DIIS: error= 2.84D-09 at cycle  14 NSaved=  14.
 NSaved=14 IEnMin=14 EnMin=-0.120217130629854E-01 IErMin=14 ErrMin= 2.84D-09
 ErrMax= 2.84D-09 EMaxC= 1.00D+00 BMatC= 4.76D-16 BMatP= 1.29D-14
 IDIUse=1 WtCom= 1.00D+00 WtEn= 0.00D+00
 Coeff-Com:  0.574D-06-0.476D-05 0.168D-05 0.598D-04-0.967D-04 0.263D-03
 Coeff-Com: -0.843D-03 0.182D-02-0.370D-02 0.806D-02-0.225D-01 0.109D+00
 Coeff-Com: -0.396D+00 0.130D+01
 Coeff:      0.574D-06-0.476D-05 0.168D-05 0.598D-04-0.967D-04 0.263D-03
 Coeff:     -0.843D-03 0.182D-02-0.370D-02 0.806D-02-0.225D-01 0.109D+00
 Coeff:     -0.396D+00 0.130D+01
 Gap=     0.384 Goal=     0.100 Shift=    0.000
 RMSDP=5.92D-09 MaxDP=1.74D-08 DE=-1.35D-13 OVMax= 0.00D+00

 Cycle  15  Pass 2  IDiag  1:
 Gap=     0.384 Goal=     0.100 Shift=    0.000
 RMSDP=5.92D-09 MaxDP=1.74D-08 DE=-1.35D-13 OVMax= 0.00D+00

 SCF Done:  E(RPM3) = -0.120217130630E-01 A.U. after   15 cycles
             Convg  =    0.5923D-08             -V/T =  0.9997
 KE=-4.668504826780D+01 PE=-6.179822900778D+01 EE= 4.728155849111D+01
 Leave Link  502 at Mon Jan  7 22:21:29 2013, MaxMem=  134217728 cpu:       0.1
 (Enter /Users/talipovmr/usr/local/g09/l508.exe)
 QCSCF skips out because SCF is already converged.
 Leave Link  508 at Mon Jan  7 22:21:29 2013, MaxMem=  134217728 cpu:       0.0
 (Enter /Users/talipovmr/usr/local/g09/l801.exe)
 Range of M.O.s used for correlation:     1    13
 NBasis=    13 NAE=     9 NBE=     9 NFC=     0 NFV=     0
 NROrb=     13 NOA=     9 NOB=     9 NVA=     4 NVB=     4
 Leave Link  801 at Mon Jan  7 22:21:29 2013, MaxMem=  134217728 cpu:       0.1
 (Enter /Users/talipovmr/usr/local/g09/l1101.exe)
 Using compressed storage, NAtomX=     4.
 Will process   5 centers per pass.
 Leave Link 1101 at Mon Jan  7 22:21:29 2013, MaxMem=  134217728 cpu:       0.1
 (Enter /Users/talipovmr/usr/local/g09/l1102.exe)
 Symmetrizing basis deriv contribution to polar:
 IMax=3 JMax=2 DiffMx= 0.00D+00
 Leave Link 1102 at Mon Jan  7 22:21:29 2013, MaxMem=  134217728 cpu:       0.1
 (Enter /Users/talipovmr/usr/local/g09/l1110.exe)
 Forming Gx(P) for the SCF density, NAtomX=     4.
 Integral derivatives from FoFDir/FoFCou, PRISM(SPDF).
 Do as many integral derivatives as possible in FoFDir.
 G2DrvN: MDV=     134158701.
 G2DrvN: will do     5 centers at a time, making    1 passes doing MaxLOS=1.
 Calling FoFCou, ICntrl=  3107 FMM=F I1Cent=   0 AccDes= 0.00D+00.
 FoFCou: FMM=F IPFlag=           0 FMFlag=      100000 FMFlg1=           0
         NFxFlg=           0 DoJE=F BraDBF=F KetDBF=F FulRan=T
         Omega=  0.000000  0.000000  1.000000  0.000000  0.000000 ICntrl=    3107 IOpCl=  0
         NMat0=    1 NMatS0=    1 NMatT0=    0 NMatD0=    1 NMtDS0=    0 NMtDT0=    0
         I1Cent=           0 NGrid=           0.
 Symmetry not used in FoFCou.
 FoFDir/FoFCou used for L=0 through L=1.
 End of G2Drv Frequency-dependent properties file   721 does not exist.
 End of G2Drv Frequency-dependent properties file   722 does not exist.
 Leave Link 1110 at Mon Jan  7 22:21:29 2013, MaxMem=  134217728 cpu:       0.1
 (Enter /Users/talipovmr/usr/local/g09/l1002.exe)
 Minotr:  Closed shell wavefunction.
          IDoAtm=1111
          Direct CPHF calculation.
          Differentiating once with respect to nuclear coordinates.
          Electric field/nuclear overlap derivatives assumed to be zero.
          Requested convergence is 1.0D-06 RMS, and 1.0D-05 maximum.
          NewPWx=T KeepS1=F KeepF1=F KeepIn=T MapXYZ=F SortEE=F KeepMc=T.
          MDV=     134158793 using IRadAn=       2.
          Keep J ints in memory in canonical form, NReq=800947.
 Symmetry not used in FoFDir.
 MinBra= 0 MaxBra= 1 Meth= 9.
 IRaf=       0 NMat=   1 IRICut=       1 DoRegI=T DoRafI=F ISym2E= 0 JSym2E=0.
          Solving linear equations separately, MaxMat=       0.
          There are    15 degrees of freedom in the 1st order CPHF.  IDoFFX=5.
 LinEq1:  Iter=  0 NonCon=    12 RMS=6.34D-02 Max=1.93D-01
 AX will form    12 AO Fock derivatives at one time.
 LinEq1:  Iter=  1 NonCon=    12 RMS=9.32D-03 Max=4.49D-02
 LinEq1:  Iter=  2 NonCon=    12 RMS=2.06D-03 Max=6.61D-03
 LinEq1:  Iter=  3 NonCon=    12 RMS=4.24D-04 Max=1.53D-03
 LinEq1:  Iter=  4 NonCon=    12 RMS=9.10D-05 Max=3.00D-04
 LinEq1:  Iter=  5 NonCon=    12 RMS=1.35D-05 Max=3.77D-05
 LinEq1:  Iter=  6 NonCon=     4 RMS=2.19D-06 Max=5.38D-06
 LinEq1:  Iter=  7 NonCon=     0 RMS=1.95D-07 Max=5.54D-07
 Linear equations converged to 1.000D-06 1.000D-05 after     7 iterations.
 End of Minotr Frequency-dependent properties file   721 does not exist.
 End of Minotr Frequency-dependent properties file   722 does not exist.
 Leave Link 1002 at Mon Jan  7 22:21:29 2013, MaxMem=  134217728 cpu:       0.1
 (Enter /Users/talipovmr/usr/local/g09/l601.exe)
 Copying SCF densities to generalized density rwf, IOpCl= 0 IROHF=0.

 **********************************************************************

            Population analysis using the SCF density.

 **********************************************************************

 Alpha  occ. eigenvalues --   -1.41548  -1.30946  -0.84349  -0.71778  -0.65089
 Alpha  occ. eigenvalues --   -0.59601  -0.54977  -0.47698  -0.40021
 Alpha virt. eigenvalues --   -0.01619   0.07956   0.15838   0.22402
          Condensed to atoms (all electrons):
              1          2          3          4
     1  O    6.359897   0.000000   0.000000   0.000000
     2  N    0.000000   4.609856   0.000000   0.000000
     3  O    0.000000   0.000000   6.242831   0.000000
     4  H    0.000000   0.000000   0.000000   0.787416
 Mulliken atomic charges:
              1
     1  O   -0.359897
     2  N    0.390144
     3  O   -0.242831
     4  H    0.212584
 Sum of Mulliken atomic charges =   0.00000
 Mulliken charges with hydrogens summed into heavy atoms:
              1
     1  O   -0.147313
     2  N    0.390144
     3  O   -0.242831
 Sum of Mulliken charges with hydrogens summed into heavy atoms =   0.00000
 APT atomic charges:
              1
     1  O   -0.359897
     2  N    0.390144
     3  O   -0.242831
     4  H    0.212584
 Sum of APT charges=   0.00000
 APT Atomic charges with hydrogens summed into heavy atoms:
              1
     1  O   -0.147313
     2  N    0.390144
     3  O   -0.242831
     4  H    0.000000
 Sum of APT charges=   0.00000
 Charge=              0.0000 electrons
 Dipole moment (field-independent basis, Debye):
    X=              0.3283    Y=             -0.1837    Z=             -1.5204  Tot=              1.5663
 N-N= 6.118969707142D+01 E-N=-6.179822900383D+01  KE=-4.668504826780D+01
  Exact polarizability:   0.000   0.000   0.000   0.000   0.000   0.000
 Approx polarizability:  18.094  -2.481   6.086  -0.204   1.151   4.338
 Leave Link  601 at Mon Jan  7 22:21:29 2013, MaxMem=  134217728 cpu:       0.1
 (Enter /Users/talipovmr/usr/local/g09/l701.exe)
 Compute integral second derivatives.
 ... and contract with generalized density number  0.
 Leave Link  701 at Mon Jan  7 22:21:29 2013, MaxMem=  134217728 cpu:       0.1
 (Enter /Users/talipovmr/usr/local/g09/l702.exe)
 L702 exits ... SP integral derivatives will be done elsewhere.
 Leave Link  702 at Mon Jan  7 22:21:29 2013, MaxMem=  134217728 cpu:       0.1
 (Enter /Users/talipovmr/usr/local/g09/l703.exe)
 Compute integral second derivatives, UseDBF=F ICtDFT=           0.
 Integral derivatives from FoFDir, PRISM(SPDF).
 Calling FoFJK, ICntrl=    100147 FMM=F ISym2X=0 I1Cent= 0 IOpClX= 0 NMat=1 NMatS=1 NMatT=0.
 FoFCou: FMM=F IPFlag=           0 FMFlag=      100000 FMFlg1=         800
         NFxFlg=           0 DoJE=F BraDBF=F KetDBF=F FulRan=T
         Omega=  0.000000  0.000000  1.000000  0.000000  0.000000 ICntrl=  100147 IOpCl=  0
         NMat0=    1 NMatS0=    1 NMatT0=    0 NMatD0=    1 NMtDS0=    0 NMtDT0=    0
         I1Cent=           0 NGrid=           0.
 Symmetry not used in FoFCou.
 Leave Link  703 at Mon Jan  7 22:21:29 2013, MaxMem=  134217728 cpu:       0.1
 (Enter /Users/talipovmr/usr/local/g09/l716.exe)
 Dipole        = 1.29179189D-01-7.22596734D-02-5.98188337D-01
 Polarizability= 0.00000000D+00 0.00000000D+00 0.00000000D+00
                 0.00000000D+00 0.00000000D+00 0.00000000D+00
 -------------------------------------------------------------------
 Center     Atomic                   Forces (Hartrees/Bohr)
 Number     Number              X              Y              Z
 -------------------------------------------------------------------
      1        8           0.000057305   -0.000046660   -0.000093715
      2        7          -0.000188386   -0.000029058    0.000007031
      3        8           0.000135662    0.000066204    0.000003097
      4        1          -0.000004581    0.000009514    0.000083587
 -------------------------------------------------------------------
 Cartesian Forces:  Max     0.000188386 RMS     0.000081915
 Force constants in Cartesian coordinates: 
                1             2             3             4             5 
      1  0.135359D+00
      2 -0.900698D-01  0.117711D+00
      3  0.322048D-02  0.121975D+00  0.522399D+00
      4 -0.118290D-01 -0.172578D-01 -0.155381D-01  0.102293D+01
      5  0.426905D-01 -0.117776D+00 -0.177078D-01  0.366618D+00  0.363795D+00
      6 -0.156363D-01 -0.157940D-01 -0.197978D-01  0.611107D-01  0.745022D-01
      7 -0.104475D+00  0.782919D-01  0.145584D-01 -0.101441D+01 -0.422532D+00
      8  0.214863D-01  0.383988D-01  0.850514D-02 -0.359204D+00 -0.213535D+00
      9 -0.124254D-02  0.185126D-01 -0.251143D-02 -0.626682D-01 -0.417716D-01
     10 -0.190400D-01  0.290572D-01 -0.224134D-02  0.328355D-02  0.132001D-01
     11  0.258873D-01 -0.383144D-01 -0.112797D+00  0.981152D-02 -0.325103D-01
     12  0.136638D-01 -0.124672D+00 -0.500080D+00  0.170798D-01 -0.150595D-01
                6             7             8             9            10 
      6  0.214393D-01
      7 -0.766433D-01  0.113564D+01
      8 -0.365059D-01  0.336596D+00  0.172104D+00
      9  0.192446D-02  0.642702D-01  0.299027D-01  0.124694D-02
     10  0.311970D-01 -0.167389D-01  0.111773D-02 -0.371099D-03  0.324850D-01
     11 -0.221737D-01  0.765400D-02  0.303329D-02 -0.666897D-02 -0.433465D-01
     12 -0.356281D-02 -0.217780D-02 -0.188393D-02 -0.663579D-03 -0.285818D-01
               11            12 
     11  0.677964D-01
     12  0.141637D+00  0.504296D+00
 Force constants in internal coordinates: 
                1             2             3             4             5 
      1  0.197449D+00
      2  0.321226D-01  0.548539D+00
      3  0.142623D+00  0.176826D-03  0.124485D+01
      4  0.604999D-01  0.340334D-01  0.294768D-01  0.197113D+00
      5  0.665221D-01  0.310916D-02  0.606631D-01  0.162182D-01  0.327165D+00
      6 -0.655696D-02  0.467667D-02  0.106024D-01  0.188333D-01  0.186643D-01
                6 
      6 -0.157788D-01
 Leave Link  716 at Mon Jan  7 22:21:29 2013, MaxMem=  134217728 cpu:       0.1
 (Enter /Users/talipovmr/usr/local/g09/l123.exe)
 IRC-IRC-IRC-IRC-IRC-IRC-IRC-IRC-IRC-IRC-IRC-IRC-IRC-IRC-IRC-IRC-IRC-IRC
          ******** Start new reaction path calculation ********
 Current Structure is TS -> diagonalize the Hessian.
 Supplied step size of   0.0500 bohr.
    Integration on MW PES will use step size of   0.0561 sqrt(amu)*bohr.
 Point Number:   0          Path Number:   1
 Calculating another point on the path.
 Point Number  1 in FORWARD path direction.
 Using LQA Reaction Path Following.
 IRC-IRC-IRC-IRC-IRC-IRC-IRC-IRC-IRC-IRC-IRC-IRC-IRC-IRC-IRC-IRC-IRC-IRC
 Leave Link  123 at Mon Jan  7 22:21:29 2013, MaxMem=  134217728 cpu:       0.0
 (Enter /Users/talipovmr/usr/local/g09/l202.exe)
                          Input orientation:                          
 ---------------------------------------------------------------------
 Center     Atomic      Atomic             Coordinates (Angstroms)
 Number     Number       Type             X           Y           Z
 ---------------------------------------------------------------------
      1          8           0        0.962071   -0.553973    0.003109
      2          7           0        0.039838    0.522146    0.069351
      3          8           0       -1.059142    0.148763   -0.006649
      4          1           0        0.987053   -0.823902   -0.907400
 ---------------------------------------------------------------------
                    Distance matrix (angstroms):
                    1          2          3          4
     1  O    0.000000
     2  N    1.418779   0.000000
     3  O    2.139915   1.163163   0.000000
     4  H    0.950006   1.913923   2.438102   0.000000
 Symmetry turned off by external request.
 Stoichiometry    HNO2
 Framework group  C1[X(HNO2)]
 Deg. of freedom     6
 Full point group                 C1      NOp   1
 Rotational constants (GHZ):     84.8450367     12.9078965     11.5597636
 Leave Link  202 at Mon Jan  7 22:21:29 2013, MaxMem=  134217728 cpu:       0.0
 (Enter /Users/talipovmr/usr/local/g09/l301.exe)
 Standard basis: VSTO-6G (5D, 7F)
 Ernie: Thresh=  0.10000D-02 Tol=  0.10000D-05 Strict=F.
  NNHCO=     0 NNPyr=     0 NCTC=     0               EPep=         0.000000000
    EC=        32.013038018  ECS=         1.102631353   EG=         0.088987997
   EHC=         0.000000000  EAt=       -27.538897446  AtH=         0.452933404
 EPDDG=         0.000000000  ECC=        33.204657368 EAtT=        27.991830850
 Integral buffers will be    131072 words long.
 Regular integral format.
 Two-electron integral symmetry is turned off.
    13 basis functions,    78 primitive gaussians,    13 cartesian basis functions
     9 alpha electrons        9 beta electrons
       nuclear repulsion energy        61.1964882183 Hartrees.
 IExCor=    0 DFT=F Ex=HF Corr=None ExCW=0 ScaHFX=  1.000000
 ScaDFX=  1.000000  1.000000  1.000000  1.000000 ScalE2=  1.000000  1.000000
 IRadAn=      0 IRanWt=     -1 IRanGd=            0 ICorTp=0
 Leave Link  301 at Mon Jan  7 22:21:29 2013, MaxMem=  134217728 cpu:       0.1
 (Enter /Users/talipovmr/usr/local/g09/l302.exe)
 Do NDO integrals.
 NPDir=0 NMtPBC=     1 NCelOv=     1 NCel=       1 NClECP=     1 NCelD=      1
         NCelK=      1 NCelE2=     1 NClLst=     1 CellRange=     0.0.
 One-electron integrals computed using PRISM.
 NBasis=    13 RedAO= F  NBF=    13
 NBsUse=    13 1.00D-04 NBFU=    13
 Leave Link  302 at Mon Jan  7 22:21:29 2013, MaxMem=  134217728 cpu:       0.2
 (Enter /Users/talipovmr/usr/local/g09/l303.exe)
 DipDrv:  MaxL=1.
 Leave Link  303 at Mon Jan  7 22:21:30 2013, MaxMem=  134217728 cpu:       0.1
 (Enter /Users/talipovmr/usr/local/g09/l401.exe)
 Initial guess read from the read-write file.
 B after Tr=     0.000000    0.000000    0.000000
         Rot=    1.000000    0.000000    0.000000    0.000000 Ang=   0.00 deg.
 Guess basis will be translated and rotated to current coordinates.
 Leave Link  401 at Mon Jan  7 22:21:30 2013, MaxMem=  134217728 cpu:       0.2
 (Enter /Users/talipovmr/usr/local/g09/l502.exe)
 Closed shell SCF:
 Requested convergence on RMS density matrix=1.00D-08 within 128 cycles.
 Requested convergence on MAX density matrix=1.00D-06.
 Requested convergence on             energy=1.00D-06.
 Level shift goal  0.100 maximum shift  0.100.
 No special actions if energy rises.
 Dynamic level shift is on during FON iterations.
 Using DIIS extrapolation, IDIIS=    10.
 Overlap will be assumed to be unity.
 Two-electron integral symmetry not used.
 Keep J ints in memory in canonical form, NReq=879130.
 IEnd=       78620 IEndB=       78620 NGot=   134217728 MDV=   134155687
 LenX=   134155687 LenY=   134154805
 Symmetry not used in FoFDir.
 MinBra= 0 MaxBra= 1 Meth= 9.
 IRaf=       0 NMat=   1 IRICut=       1 DoRegI=T DoRafI=F ISym2E= 0 JSym2E=0.

 Cycle   1  Pass 1  IDiag  1:
 E=-0.118444125851624E-01
 DIIS: error= 1.22D-03 at cycle   1 NSaved=   1.
 NSaved= 1 IEnMin= 1 EnMin=-0.118444125851624E-01 IErMin= 1 ErrMin= 1.22D-03
 ErrMax= 1.22D-03 EMaxC= 1.00D+00 BMatC= 2.57D-05 BMatP= 2.57D-05
 IDIUse=1 WtCom= 1.00D+00 WtEn= 0.00D+00
 Coeff-Com:  0.100D+01
 Coeff:      0.100D+01
 Gap=     0.384 Goal=     0.100 Shift=    0.000
 GapD=    0.384 DampG=1.000 DampE=1.000 DampFc=1.0000 IDamp=-1.
 RMSDP=8.50D-04 MaxDP=4.09D-03              OVMax= 0.00D+00

 Cycle   2  Pass 1  IDiag  3:
 E=-0.119660448798484E-01 Delta-E=       -0.000121632295 Rises=F Damp=F
 DIIS: error= 7.34D-04 at cycle   2 NSaved=   2.
 NSaved= 2 IEnMin= 2 EnMin=-0.119660448798484E-01 IErMin= 2 ErrMin= 7.34D-04
 ErrMax= 7.34D-04 EMaxC= 1.00D+00 BMatC= 8.15D-06 BMatP= 2.57D-05
 IDIUse=1 WtCom= 1.00D+00 WtEn= 0.00D+00
 Coeff-Com: -0.107D+01 0.207D+01
 Coeff:     -0.107D+01 0.207D+01
 Gap=     0.384 Goal=     0.100 Shift=    0.000
 RMSDP=1.06D-03 MaxDP=5.09D-03 DE=-1.22D-04 OVMax= 0.00D+00

 Cycle   3  Pass 1  IDiag  3:
 E=-0.120307653810414E-01 Delta-E=       -0.000064720501 Rises=F Damp=F
 DIIS: error= 1.39D-04 at cycle   3 NSaved=   3.
 NSaved= 3 IEnMin= 3 EnMin=-0.120307653810414E-01 IErMin= 3 ErrMin= 1.39D-04
 ErrMax= 1.39D-04 EMaxC= 1.00D+00 BMatC= 3.93D-07 BMatP= 8.15D-06
 IDIUse=1 WtCom= 1.00D+00 WtEn= 0.00D+00
 Coeff-Com:  0.544D+00-0.119D+01 0.165D+01
 Coeff:      0.544D+00-0.119D+01 0.165D+01
 Gap=     0.384 Goal=     0.100 Shift=    0.000
 RMSDP=2.75D-04 MaxDP=1.11D-03 DE=-6.47D-05 OVMax= 0.00D+00

 Cycle   4  Pass 1  IDiag  3:
 E=-0.120343230943192E-01 Delta-E=       -0.000003557713 Rises=F Damp=F
 DIIS: error= 3.05D-05 at cycle   4 NSaved=   4.
 NSaved= 4 IEnMin= 4 EnMin=-0.120343230943192E-01 IErMin= 4 ErrMin= 3.05D-05
 ErrMax= 3.05D-05 EMaxC= 1.00D+00 BMatC= 2.85D-08 BMatP= 3.93D-07
 IDIUse=1 WtCom= 1.00D+00 WtEn= 0.00D+00
 Coeff-Com: -0.402D+00 0.892D+00-0.135D+01 0.186D+01
 Coeff:     -0.402D+00 0.892D+00-0.135D+01 0.186D+01
 Gap=     0.384 Goal=     0.100 Shift=    0.000
 RMSDP=8.04D-05 MaxDP=2.43D-04 DE=-3.56D-06 OVMax= 0.00D+00

 Cycle   5  Pass 1  IDiag  3:
 E=-0.120346403301994E-01 Delta-E=       -0.000000317236 Rises=F Damp=F
 DIIS: error= 1.88D-05 at cycle   5 NSaved=   5.
 NSaved= 5 IEnMin= 5 EnMin=-0.120346403301994E-01 IErMin= 5 ErrMin= 1.88D-05
 ErrMax= 1.88D-05 EMaxC= 1.00D+00 BMatC= 4.76D-09 BMatP= 2.85D-08
 IDIUse=1 WtCom= 1.00D+00 WtEn= 0.00D+00
 Coeff-Com:  0.303D+00-0.675D+00 0.106D+01-0.171D+01 0.203D+01
 Coeff:      0.303D+00-0.675D+00 0.106D+01-0.171D+01 0.203D+01
 Gap=     0.384 Goal=     0.100 Shift=    0.000
 RMSDP=4.44D-05 MaxDP=1.89D-04 DE=-3.17D-07 OVMax= 0.00D+00

 Cycle   6  Pass 1  IDiag  3:
 E=-0.120347186886676E-01 Delta-E=       -0.000000078358 Rises=F Damp=F
 DIIS: error= 9.75D-06 at cycle   6 NSaved=   6.
 NSaved= 6 IEnMin= 6 EnMin=-0.120347186886676E-01 IErMin= 6 ErrMin= 9.75D-06
 ErrMax= 9.75D-06 EMaxC= 1.00D+00 BMatC= 1.11D-09 BMatP= 4.76D-09
 IDIUse=1 WtCom= 1.00D+00 WtEn= 0.00D+00
 Coeff-Com: -0.136D+00 0.302D+00-0.476D+00 0.834D+00-0.152D+01 0.200D+01
 Coeff:     -0.136D+00 0.302D+00-0.476D+00 0.834D+00-0.152D+01 0.200D+01
 Gap=     0.384 Goal=     0.100 Shift=    0.000
 RMSDP=2.82D-05 MaxDP=1.35D-04 DE=-7.84D-08 OVMax= 0.00D+00

 Cycle   7  Pass 1  IDiag  3:
 E=-0.120347400232177E-01 Delta-E=       -0.000000021335 Rises=F Damp=F
 DIIS: error= 3.35D-06 at cycle   7 NSaved=   7.
 NSaved= 7 IEnMin= 7 EnMin=-0.120347400232177E-01 IErMin= 7 ErrMin= 3.35D-06
 ErrMax= 3.35D-06 EMaxC= 1.00D+00 BMatC= 1.60D-10 BMatP= 1.11D-09
 IDIUse=1 WtCom= 1.00D+00 WtEn= 0.00D+00
 Coeff-Com:  0.137D-01-0.306D-01 0.493D-01-0.112D+00 0.401D+00-0.104D+01
 Coeff-Com:  0.172D+01
 Coeff:      0.137D-01-0.306D-01 0.493D-01-0.112D+00 0.401D+00-0.104D+01
 Coeff:      0.172D+01
 Gap=     0.384 Goal=     0.100 Shift=    0.000
 RMSDP=1.05D-05 MaxDP=5.32D-05 DE=-2.13D-08 OVMax= 0.00D+00

 Cycle   8  Pass 1  IDiag  3:
 E=-0.120347426052376E-01 Delta-E=       -0.000000002582 Rises=F Damp=F
 DIIS: error= 7.61D-07 at cycle   8 NSaved=   8.
 NSaved= 8 IEnMin= 8 EnMin=-0.120347426052376E-01 IErMin= 8 ErrMin= 7.61D-07
 ErrMax= 7.61D-07 EMaxC= 1.00D+00 BMatC= 1.52D-11 BMatP= 1.60D-10
 IDIUse=1 WtCom= 1.00D+00 WtEn= 0.00D+00
 Coeff-Com:  0.116D-01-0.258D-01 0.391D-01-0.479D-01-0.489D-01 0.408D+00
 Coeff-Com: -0.111D+01 0.178D+01
 Coeff:      0.116D-01-0.258D-01 0.391D-01-0.479D-01-0.489D-01 0.408D+00
 Coeff:     -0.111D+01 0.178D+01
 Gap=     0.384 Goal=     0.100 Shift=    0.000
 RMSDP=2.44D-06 MaxDP=1.14D-05 DE=-2.58D-09 OVMax= 0.00D+00

 Cycle   9  Pass 1  IDiag  3:
 E=-0.120347427653158E-01 Delta-E=       -0.000000000160 Rises=F Damp=F
 DIIS: error= 8.91D-08 at cycle   9 NSaved=   9.
 NSaved= 9 IEnMin= 9 EnMin=-0.120347427653158E-01 IErMin= 9 ErrMin= 8.91D-08
 ErrMax= 8.91D-08 EMaxC= 1.00D+00 BMatC= 2.65D-13 BMatP= 1.52D-11
 IDIUse=1 WtCom= 1.00D+00 WtEn= 0.00D+00
 Coeff-Com: -0.493D-02 0.110D-01-0.167D-01 0.222D-01 0.431D-02-0.116D+00
 Coeff-Com:  0.348D+00-0.643D+00 0.139D+01
 Coeff:     -0.493D-02 0.110D-01-0.167D-01 0.222D-01 0.431D-02-0.116D+00
 Coeff:      0.348D+00-0.643D+00 0.139D+01
 Gap=     0.384 Goal=     0.100 Shift=    0.000
 RMSDP=2.10D-07 MaxDP=8.87D-07 DE=-1.60D-10 OVMax= 0.00D+00

 Cycle  10  Pass 1  IDiag  3:
 E=-0.120347427670708E-01 Delta-E=       -0.000000000002 Rises=F Damp=F
 DIIS: error= 1.82D-08 at cycle  10 NSaved=  10.
 NSaved=10 IEnMin=10 EnMin=-0.120347427670708E-01 IErMin=10 ErrMin= 1.82D-08
 ErrMax= 1.82D-08 EMaxC= 1.00D+00 BMatC= 1.07D-14 BMatP= 2.65D-13
 IDIUse=1 WtCom= 1.00D+00 WtEn= 0.00D+00
 Coeff-Com:  0.126D-02-0.280D-02 0.423D-02-0.536D-02-0.241D-02 0.334D-01
 Coeff-Com: -0.963D-01 0.179D+00-0.481D+00 0.137D+01
 Coeff:      0.126D-02-0.280D-02 0.423D-02-0.536D-02-0.241D-02 0.334D-01
 Coeff:     -0.963D-01 0.179D+00-0.481D+00 0.137D+01
 Gap=     0.384 Goal=     0.100 Shift=    0.000
 RMSDP=3.23D-08 MaxDP=1.17D-07 DE=-1.76D-12 OVMax= 0.00D+00

 Cycle  11  Pass 1  IDiag  3:
 E=-0.120347427671561E-01 Delta-E=        0.000000000000 Rises=F Damp=F
 DIIS: error= 7.18D-09 at cycle  11 NSaved=  11.
 NSaved=11 IEnMin=11 EnMin=-0.120347427671561E-01 IErMin=11 ErrMin= 7.18D-09
 ErrMax= 7.18D-09 EMaxC= 1.00D+00 BMatC= 1.51D-15 BMatP= 1.07D-14
 IDIUse=1 WtCom= 1.00D+00 WtEn= 0.00D+00
 Coeff-Com: -0.328D-03 0.725D-03-0.108D-02 0.121D-02 0.160D-02-0.116D-01
 Coeff-Com:  0.307D-01-0.562D-01 0.177D+00-0.867D+00 0.172D+01
 Coeff:     -0.328D-03 0.725D-03-0.108D-02 0.121D-02 0.160D-02-0.116D-01
 Coeff:      0.307D-01-0.562D-01 0.177D+00-0.867D+00 0.172D+01
 Gap=     0.384 Goal=     0.100 Shift=    0.000
 RMSDP=1.69D-08 MaxDP=6.66D-08 DE=-8.53D-14 OVMax= 0.00D+00

 Cycle  12  Pass 1  IDiag  3:
 E=-0.120347427671419E-01 Delta-E=        0.000000000000 Rises=F Damp=F
 DIIS: error= 1.88D-09 at cycle  12 NSaved=  12.
 NSaved=12 IEnMin=11 EnMin=-0.120347427671561E-01 IErMin=12 ErrMin= 1.88D-09
 ErrMax= 1.88D-09 EMaxC= 1.00D+00 BMatC= 9.20D-17 BMatP= 1.51D-15
 IDIUse=1 WtCom= 1.00D+00 WtEn= 0.00D+00
 Coeff-Com:  0.566D-04-0.124D-03 0.174D-03-0.110D-03-0.763D-03 0.343D-02
 Coeff-Com: -0.822D-02 0.147D-01-0.536D-01 0.354D+00-0.937D+00 0.163D+01
 Coeff:      0.566D-04-0.124D-03 0.174D-03-0.110D-03-0.763D-03 0.343D-02
 Coeff:     -0.822D-02 0.147D-01-0.536D-01 0.354D+00-0.937D+00 0.163D+01
 Gap=     0.384 Goal=     0.100 Shift=    0.000
 RMSDP=4.19D-09 MaxDP=1.51D-08 DE= 1.42D-14 OVMax= 0.00D+00

 Cycle  13  Pass 2  IDiag  1:
 Gap=     0.384 Goal=     0.100 Shift=    0.000
 RMSDP=4.19D-09 MaxDP=1.51D-08 DE= 1.42D-14 OVMax= 0.00D+00

 SCF Done:  E(RPM3) = -0.120347427671E-01 A.U. after   13 cycles
             Convg  =    0.4188D-08             -V/T =  0.9997
 KE=-4.668662029819D+01 PE=-6.180757637092D+01 EE= 4.728567370800D+01
 Leave Link  502 at Mon Jan  7 22:21:30 2013, MaxMem=  134217728 cpu:       0.2
 (Enter /Users/talipovmr/usr/local/g09/l508.exe)
 QCSCF skips out because SCF is already converged.
 Leave Link  508 at Mon Jan  7 22:21:30 2013, MaxMem=  134217728 cpu:       0.0
 (Enter /Users/talipovmr/usr/local/g09/l801.exe)
 Range of M.O.s used for correlation:     1    13
 NBasis=    13 NAE=     9 NBE=     9 NFC=     0 NFV=     0
 NROrb=     13 NOA=     9 NOB=     9 NVA=     4 NVB=     4
 Leave Link  801 at Mon Jan  7 22:21:30 2013, MaxMem=  134217728 cpu:       0.1
 (Enter /Users/talipovmr/usr/local/g09/l1101.exe)
 Leave Link 1101 at Mon Jan  7 22:21:30 2013, MaxMem=  134217728 cpu:       0.1
 (Enter /Users/talipovmr/usr/local/g09/l1102.exe)
 Symmetrizing basis deriv contribution to polar:
 IMax=3 JMax=2 DiffMx= 0.00D+00
 Leave Link 1102 at Mon Jan  7 22:21:30 2013, MaxMem=  134217728 cpu:       0.1
 (Enter /Users/talipovmr/usr/local/g09/l1110.exe)
 Leave Link 1110 at Mon Jan  7 22:21:30 2013, MaxMem=  134217728 cpu:       0.1
 (Enter /Users/talipovmr/usr/local/g09/l1002.exe)
 Minotr:  Closed shell wavefunction.
 Leave Link 1002 at Mon Jan  7 22:21:30 2013, MaxMem=  134217728 cpu:       0.1
 (Enter /Users/talipovmr/usr/local/g09/l701.exe)
 Compute integral first derivatives.
 ... and contract with generalized density number  0.
 Leave Link  701 at Mon Jan  7 22:21:30 2013, MaxMem=  134217728 cpu:       0.1
 (Enter /Users/talipovmr/usr/local/g09/l702.exe)
 L702 exits ... SP integral derivatives will be done elsewhere.
 Leave Link  702 at Mon Jan  7 22:21:30 2013, MaxMem=  134217728 cpu:       0.1
 (Enter /Users/talipovmr/usr/local/g09/l703.exe)
 Compute integral first derivatives, UseDBF=F ICtDFT=           0.
 Integral derivatives from FoFDir, PRISM(SPDF).
 Calling FoFJK, ICntrl=      2147 FMM=F ISym2X=0 I1Cent= 0 IOpClX= 0 NMat=1 NMatS=1 NMatT=0.
 FoFCou: FMM=F IPFlag=           0 FMFlag=      100000 FMFlg1=         800
         NFxFlg=           0 DoJE=F BraDBF=F KetDBF=F FulRan=T
         Omega=  0.000000  0.000000  1.000000  0.000000  0.000000 ICntrl=    2147 IOpCl=  0
         NMat0=    1 NMatS0=    1 NMatT0=    0 NMatD0=    1 NMtDS0=    0 NMtDT0=    0
         I1Cent=           0 NGrid=           0.
 Symmetry not used in FoFCou.
 Leave Link  703 at Mon Jan  7 22:21:30 2013, MaxMem=  134217728 cpu:       0.1
 (Enter /Users/talipovmr/usr/local/g09/l716.exe)
 Dipole        = 1.20853617D-01-8.58978746D-02-5.95379110D-01
 Polarizability= 0.00000000D+00 0.00000000D+00 0.00000000D+00
                 0.00000000D+00 0.00000000D+00 0.00000000D+00
 -------------------------------------------------------------------
 Center     Atomic                   Forces (Hartrees/Bohr)
 Number     Number              X              Y              Z
 -------------------------------------------------------------------
      1        8           0.000290108    0.000318952   -0.000693582
      2        7          -0.000108715   -0.000266665    0.000470694
      3        8           0.000117464    0.000096959   -0.000338329
      4        1          -0.000298857   -0.000149245    0.000561217
 -------------------------------------------------------------------
 Cartesian Forces:  Max     0.000693582 RMS     0.000357730
 Leave Link  716 at Mon Jan  7 22:21:30 2013, MaxMem=  134217728 cpu:       0.1
 (Enter /Users/talipovmr/usr/local/g09/l123.exe)
 IRC-IRC-IRC-IRC-IRC-IRC-IRC-IRC-IRC-IRC-IRC-IRC-IRC-IRC-IRC-IRC-IRC-IRC
 Pt  1 Step number   1 out of a maximum of 200
 Point Number:   1          Path Number:   1
                    CURRENT STRUCTURE
                Cartesian Coordinates (Ang):                
 ---------------------------------------------------------------------
 Center     Atomic                     Coordinates (Angstroms)
 Number     Number                        X           Y           Z
 ---------------------------------------------------------------------
      1          8                    0.962071   -0.553973    0.003109
      2          7                    0.039838    0.522146    0.069351
      3          8                   -1.059142    0.148763   -0.006649
      4          1                    0.987053   -0.823902   -0.907400
 ---------------------------------------------------------------------
   CHANGE IN THE REACTION COORDINATE =    0.05608
   NET REACTION COORDINATE UP TO THIS POINT =    0.05608
  # OF POINTS ALONG THE PATH =   1
  # OF STEPS =   1

 Calculating another point on the path.
 Point Number  2 in FORWARD path direction.
 Using LQA Reaction Path Following.
   LQA: T_Est iteration completed in    4 iterations.
 IRC-IRC-IRC-IRC-IRC-IRC-IRC-IRC-IRC-IRC-IRC-IRC-IRC-IRC-IRC-IRC-IRC-IRC
 Leave Link  123 at Mon Jan  7 22:21:30 2013, MaxMem=  134217728 cpu:       0.0
 (Enter /Users/talipovmr/usr/local/g09/l202.exe)
                          Input orientation:                          
 ---------------------------------------------------------------------
 Center     Atomic      Atomic             Coordinates (Angstroms)
 Number     Number       Type             X           Y           Z
 ---------------------------------------------------------------------
      1          8           0        0.963155   -0.552169    0.002334
      2          7           0        0.040025    0.521195    0.071488
      3          8           0       -1.059228    0.148917   -0.008028
      4          1           0        0.968623   -0.841758   -0.902900
 ---------------------------------------------------------------------
                    Distance matrix (angstroms):
                    1          2          3          4
     1  O    0.000000
     2  N    1.417414   0.000000
     3  O    2.140482   1.163301   0.000000
     4  H    0.950442   1.915559   2.427841   0.000000
 Symmetry turned off by external request.
 Stoichiometry    HNO2
 Framework group  C1[X(HNO2)]
 Deg. of freedom     6
 Full point group                 C1      NOp   1
 Rotational constants (GHZ):     84.9270401     12.9183454     11.5597409
 Leave Link  202 at Mon Jan  7 22:21:30 2013, MaxMem=  134217728 cpu:       0.0
 (Enter /Users/talipovmr/usr/local/g09/l301.exe)
 Standard basis: VSTO-6G (5D, 7F)
 Ernie: Thresh=  0.10000D-02 Tol=  0.10000D-05 Strict=F.
  NNHCO=     0 NNPyr=     0 NCTC=     0               EPep=         0.000000000
    EC=        32.019217653  ECS=         1.103203052   EG=         0.089242142
   EHC=         0.000000000  EAt=       -27.538897446  AtH=         0.452933404
 EPDDG=         0.000000000  ECC=        33.211662847 EAtT=        27.991830850
 Integral buffers will be    131072 words long.
 Regular integral format.
 Two-electron integral symmetry is turned off.
    13 basis functions,    78 primitive gaussians,    13 cartesian basis functions
     9 alpha electrons        9 beta electrons
       nuclear repulsion energy        61.2034936978 Hartrees.
 IExCor=    0 DFT=F Ex=HF Corr=None ExCW=0 ScaHFX=  1.000000
 ScaDFX=  1.000000  1.000000  1.000000  1.000000 ScalE2=  1.000000  1.000000
 IRadAn=      0 IRanWt=     -1 IRanGd=            0 ICorTp=0
 Leave Link  301 at Mon Jan  7 22:21:30 2013, MaxMem=  134217728 cpu:       0.1
 (Enter /Users/talipovmr/usr/local/g09/l302.exe)
 Do NDO integrals.
 NPDir=0 NMtPBC=     1 NCelOv=     1 NCel=       1 NClECP=     1 NCelD=      1
         NCelK=      1 NCelE2=     1 NClLst=     1 CellRange=     0.0.
 One-electron integrals computed using PRISM.
 NBasis=    13 RedAO= F  NBF=    13
 NBsUse=    13 1.00D-04 NBFU=    13
 Leave Link  302 at Mon Jan  7 22:21:31 2013, MaxMem=  134217728 cpu:       0.2
 (Enter /Users/talipovmr/usr/local/g09/l303.exe)
 DipDrv:  MaxL=1.
 Leave Link  303 at Mon Jan  7 22:21:31 2013, MaxMem=  134217728 cpu:       0.1
 (Enter /Users/talipovmr/usr/local/g09/l401.exe)
 Initial guess read from the read-write file.
 B after Tr=     0.000000    0.000000    0.000000
         Rot=    1.000000    0.000000    0.000000    0.000000 Ang=   0.00 deg.
 Guess basis will be translated and rotated to current coordinates.
 Leave Link  401 at Mon Jan  7 22:21:31 2013, MaxMem=  134217728 cpu:       0.3
 (Enter /Users/talipovmr/usr/local/g09/l502.exe)
 Closed shell SCF:
 Requested convergence on RMS density matrix=1.00D-08 within 128 cycles.
 Requested convergence on MAX density matrix=1.00D-06.
 Requested convergence on             energy=1.00D-06.
 Level shift goal  0.100 maximum shift  0.100.
 No special actions if energy rises.
 Dynamic level shift is on during FON iterations.
 Using DIIS extrapolation, IDIIS=    10.
 Overlap will be assumed to be unity.
 Two-electron integral symmetry not used.
 Keep J ints in memory in canonical form, NReq=879130.
 IEnd=       78620 IEndB=       78620 NGot=   134217728 MDV=   134155687
 LenX=   134155687 LenY=   134154805
 Symmetry not used in FoFDir.
 MinBra= 0 MaxBra= 1 Meth= 9.
 IRaf=       0 NMat=   1 IRICut=       1 DoRegI=T DoRafI=F ISym2E= 0 JSym2E=0.

 Cycle   1  Pass 1  IDiag  1:
 E=-0.118846522413349E-01
 DIIS: error= 1.19D-03 at cycle   1 NSaved=   1.
 NSaved= 1 IEnMin= 1 EnMin=-0.118846522413349E-01 IErMin= 1 ErrMin= 1.19D-03
 ErrMax= 1.19D-03 EMaxC= 1.00D+00 BMatC= 2.54D-05 BMatP= 2.54D-05
 IDIUse=1 WtCom= 1.00D+00 WtEn= 0.00D+00
 Coeff-Com:  0.100D+01
 Coeff:      0.100D+01
 Gap=     0.384 Goal=     0.100 Shift=    0.000
 GapD=    0.384 DampG=1.000 DampE=1.000 DampFc=1.0000 IDamp=-1.
 RMSDP=8.47D-04 MaxDP=4.01D-03              OVMax= 0.00D+00

 Cycle   2  Pass 1  IDiag  3:
 E=-0.120051888696509E-01 Delta-E=       -0.000120536628 Rises=F Damp=F
 DIIS: error= 7.19D-04 at cycle   2 NSaved=   2.
 NSaved= 2 IEnMin= 2 EnMin=-0.120051888696509E-01 IErMin= 2 ErrMin= 7.19D-04
 ErrMax= 7.19D-04 EMaxC= 1.00D+00 BMatC= 8.06D-06 BMatP= 2.54D-05
 IDIUse=1 WtCom= 1.00D+00 WtEn= 0.00D+00
 Coeff-Com: -0.107D+01 0.207D+01
 Coeff:     -0.107D+01 0.207D+01
 Gap=     0.384 Goal=     0.100 Shift=    0.000
 RMSDP=1.06D-03 MaxDP=4.98D-03 DE=-1.21D-04 OVMax= 0.00D+00

 Cycle   3  Pass 1  IDiag  3:
 E=-0.120693031322077E-01 Delta-E=       -0.000064114263 Rises=F Damp=F
 DIIS: error= 1.37D-04 at cycle   3 NSaved=   3.
 NSaved= 3 IEnMin= 3 EnMin=-0.120693031322077E-01 IErMin= 3 ErrMin= 1.37D-04
 ErrMax= 1.37D-04 EMaxC= 1.00D+00 BMatC= 3.89D-07 BMatP= 8.06D-06
 IDIUse=1 WtCom= 1.00D+00 WtEn= 0.00D+00
 Coeff-Com:  0.541D+00-0.119D+01 0.165D+01
 Coeff:      0.541D+00-0.119D+01 0.165D+01
 Gap=     0.384 Goal=     0.100 Shift=    0.000
 RMSDP=2.74D-04 MaxDP=1.09D-03 DE=-6.41D-05 OVMax= 0.00D+00

 Cycle   4  Pass 1  IDiag  3:
 E=-0.120728253856441E-01 Delta-E=       -0.000003522253 Rises=F Damp=F
 DIIS: error= 3.03D-05 at cycle   4 NSaved=   4.
 NSaved= 4 IEnMin= 4 EnMin=-0.120728253856441E-01 IErMin= 4 ErrMin= 3.03D-05
 ErrMax= 3.03D-05 EMaxC= 1.00D+00 BMatC= 2.80D-08 BMatP= 3.89D-07
 IDIUse=1 WtCom= 1.00D+00 WtEn= 0.00D+00
 Coeff-Com: -0.388D+00 0.863D+00-0.131D+01 0.184D+01
 Coeff:     -0.388D+00 0.863D+00-0.131D+01 0.184D+01
 Gap=     0.384 Goal=     0.100 Shift=    0.000
 RMSDP=7.88D-05 MaxDP=2.37D-04 DE=-3.52D-06 OVMax= 0.00D+00

 Cycle   5  Pass 1  IDiag  3:
 E=-0.120731350044920E-01 Delta-E=       -0.000000309619 Rises=F Damp=F
 DIIS: error= 1.87D-05 at cycle   5 NSaved=   5.
 NSaved= 5 IEnMin= 5 EnMin=-0.120731350044920E-01 IErMin= 5 ErrMin= 1.87D-05
 ErrMax= 1.87D-05 EMaxC= 1.00D+00 BMatC= 4.77D-09 BMatP= 2.80D-08
 IDIUse=1 WtCom= 1.00D+00 WtEn= 0.00D+00
 Coeff-Com:  0.251D+00-0.560D+00 0.884D+00-0.150D+01 0.193D+01
 Coeff:      0.251D+00-0.560D+00 0.884D+00-0.150D+01 0.193D+01
 Gap=     0.384 Goal=     0.100 Shift=    0.000
 RMSDP=4.25D-05 MaxDP=1.78D-04 DE=-3.10D-07 OVMax= 0.00D+00

 Cycle   6  Pass 1  IDiag  3:
 E=-0.120732110371549E-01 Delta-E=       -0.000000076033 Rises=F Damp=F
 DIIS: error= 1.00D-05 at cycle   6 NSaved=   6.
 NSaved= 6 IEnMin= 6 EnMin=-0.120732110371549E-01 IErMin= 6 ErrMin= 1.00D-05
 ErrMax= 1.00D-05 EMaxC= 1.00D+00 BMatC= 1.17D-09 BMatP= 4.77D-09
 IDIUse=1 WtCom= 1.00D+00 WtEn= 0.00D+00
 Coeff-Com: -0.812D-01 0.182D+00-0.296D+00 0.603D+00-0.141D+01 0.200D+01
 Coeff:     -0.812D-01 0.182D+00-0.296D+00 0.603D+00-0.141D+01 0.200D+01
 Gap=     0.384 Goal=     0.100 Shift=    0.000
 RMSDP=2.92D-05 MaxDP=1.38D-04 DE=-7.60D-08 OVMax= 0.00D+00

 Cycle   7  Pass 1  IDiag  3:
 E=-0.120732338579828E-01 Delta-E=       -0.000000022821 Rises=F Damp=F
 DIIS: error= 3.46D-06 at cycle   7 NSaved=   7.
 NSaved= 7 IEnMin= 7 EnMin=-0.120732338579828E-01 IErMin= 7 ErrMin= 3.46D-06
 ErrMax= 3.46D-06 EMaxC= 1.00D+00 BMatC= 1.72D-10 BMatP= 1.17D-09
 IDIUse=1 WtCom= 1.00D+00 WtEn= 0.00D+00
 Coeff-Com:  0.782D-02-0.177D-01 0.317D-01-0.108D+00 0.502D+00-0.121D+01
 Coeff-Com:  0.180D+01
 Coeff:      0.782D-02-0.177D-01 0.317D-01-0.108D+00 0.502D+00-0.121D+01
 Coeff:      0.180D+01
 Gap=     0.384 Goal=     0.100 Shift=    0.000
 RMSDP=1.10D-05 MaxDP=5.55D-05 DE=-2.28D-08 OVMax= 0.00D+00

 Cycle   8  Pass 1  IDiag  3:
 E=-0.120732366679235E-01 Delta-E=       -0.000000002810 Rises=F Damp=F
 DIIS: error= 7.56D-07 at cycle   8 NSaved=   8.
 NSaved= 8 IEnMin= 8 EnMin=-0.120732366679235E-01 IErMin= 8 ErrMin= 7.56D-07
 ErrMax= 7.56D-07 EMaxC= 1.00D+00 BMatC= 1.58D-11 BMatP= 1.72D-10
 IDIUse=1 WtCom= 1.00D+00 WtEn= 0.00D+00
 Coeff-Com:  0.762D-02-0.169D-01 0.255D-01-0.242D-01-0.100D+00 0.455D+00
 Coeff-Com: -0.108D+01 0.173D+01
 Coeff:      0.762D-02-0.169D-01 0.255D-01-0.242D-01-0.100D+00 0.455D+00
 Coeff:     -0.108D+01 0.173D+01
 Gap=     0.384 Goal=     0.100 Shift=    0.000
 RMSDP=2.48D-06 MaxDP=1.18D-05 DE=-2.81D-09 OVMax= 0.00D+00

 Cycle   9  Pass 1  IDiag  3:
 E=-0.120732368358603E-01 Delta-E=       -0.000000000168 Rises=F Damp=F
 DIIS: error= 1.10D-07 at cycle   9 NSaved=   9.
 NSaved= 9 IEnMin= 9 EnMin=-0.120732368358603E-01 IErMin= 9 ErrMin= 1.10D-07
 ErrMax= 1.10D-07 EMaxC= 1.00D+00 BMatC= 3.72D-13 BMatP= 1.58D-11
 IDIUse=1 WtCom= 1.00D+00 WtEn= 0.00D+00
 Coeff-Com: -0.379D-02 0.844D-02-0.129D-01 0.146D-01 0.301D-01-0.169D+00
 Coeff-Com:  0.426D+00-0.779D+00 0.149D+01
 Coeff:     -0.379D-02 0.844D-02-0.129D-01 0.146D-01 0.301D-01-0.169D+00
 Coeff:      0.426D+00-0.779D+00 0.149D+01
 Gap=     0.384 Goal=     0.100 Shift=    0.000
 RMSDP=2.50D-07 MaxDP=1.01D-06 DE=-1.68D-10 OVMax= 0.00D+00

 Cycle  10  Pass 1  IDiag  3:
 E=-0.120732368383401E-01 Delta-E=       -0.000000000002 Rises=F Damp=F
 DIIS: error= 1.90D-08 at cycle  10 NSaved=  10.
 NSaved=10 IEnMin=10 EnMin=-0.120732368383401E-01 IErMin=10 ErrMin= 1.90D-08
 ErrMax= 1.90D-08 EMaxC= 1.00D+00 BMatC= 1.17D-14 BMatP= 3.72D-13
 IDIUse=1 WtCom= 1.00D+00 WtEn= 0.00D+00
 Coeff-Com:  0.141D-02-0.312D-02 0.473D-02-0.499D-02-0.134D-01 0.692D-01
 Coeff-Com: -0.171D+00 0.315D+00-0.671D+00 0.147D+01
 Coeff:      0.141D-02-0.312D-02 0.473D-02-0.499D-02-0.134D-01 0.692D-01
 Coeff:     -0.171D+00 0.315D+00-0.671D+00 0.147D+01
 Gap=     0.384 Goal=     0.100 Shift=    0.000
 RMSDP=3.76D-08 MaxDP=1.27D-07 DE=-2.48D-12 OVMax= 0.00D+00

 Cycle  11  Pass 1  IDiag  3:
 E=-0.120732368384253E-01 Delta-E=        0.000000000000 Rises=F Damp=F
 DIIS: error= 6.10D-09 at cycle  11 NSaved=  11.
 NSaved=11 IEnMin=11 EnMin=-0.120732368384253E-01 IErMin=11 ErrMin= 6.10D-09
 ErrMax= 6.10D-09 EMaxC= 1.00D+00 BMatC= 1.30D-15 BMatP= 1.17D-14
 IDIUse=1 WtCom= 1.00D+00 WtEn= 0.00D+00
 Coeff-Com: -0.401D-03 0.890D-03-0.133D-02 0.124D-02 0.496D-02-0.229D-01
 Coeff-Com:  0.548D-01-0.998D-01 0.224D+00-0.746D+00 0.158D+01
 Coeff:     -0.401D-03 0.890D-03-0.133D-02 0.124D-02 0.496D-02-0.229D-01
 Coeff:      0.548D-01-0.998D-01 0.224D+00-0.746D+00 0.158D+01
 Gap=     0.384 Goal=     0.100 Shift=    0.000
 RMSDP=1.45D-08 MaxDP=5.88D-08 DE=-8.53D-14 OVMax= 0.00D+00

 Cycle  12  Pass 1  IDiag  3:
 E=-0.120732368384182E-01 Delta-E=        0.000000000000 Rises=F Damp=F
 DIIS: error= 2.28D-09 at cycle  12 NSaved=  12.
 NSaved=12 IEnMin=11 EnMin=-0.120732368384253E-01 IErMin=12 ErrMin= 2.28D-09
 ErrMax= 2.28D-09 EMaxC= 1.00D+00 BMatC= 1.15D-16 BMatP= 1.30D-15
 IDIUse=1 WtCom= 1.00D+00 WtEn= 0.00D+00
 Coeff-Com:  0.473D-04-0.104D-03 0.146D-03-0.327D-04-0.123D-02 0.449D-02
 Coeff-Com: -0.990D-02 0.175D-01-0.426D-01 0.213D+00-0.781D+00 0.160D+01
 Coeff:      0.473D-04-0.104D-03 0.146D-03-0.327D-04-0.123D-02 0.449D-02
 Coeff:     -0.990D-02 0.175D-01-0.426D-01 0.213D+00-0.781D+00 0.160D+01
 Gap=     0.384 Goal=     0.100 Shift=    0.000
 RMSDP=4.78D-09 MaxDP=1.81D-08 DE= 7.11D-15 OVMax= 0.00D+00

 Cycle  13  Pass 2  IDiag  1:
 Gap=     0.384 Goal=     0.100 Shift=    0.000
 RMSDP=4.78D-09 MaxDP=1.81D-08 DE= 7.11D-15 OVMax= 0.00D+00

 SCF Done:  E(RPM3) = -0.120732368384E-01 A.U. after   13 cycles
             Convg  =    0.4778D-08             -V/T =  0.9997
 KE=-4.668828801419D+01 PE=-6.181710682842D+01 EE= 4.728982790802D+01
 Leave Link  502 at Mon Jan  7 22:21:31 2013, MaxMem=  134217728 cpu:       0.1
 (Enter /Users/talipovmr/usr/local/g09/l508.exe)
 QCSCF skips out because SCF is already converged.
 Leave Link  508 at Mon Jan  7 22:21:31 2013, MaxMem=  134217728 cpu:       0.0
 (Enter /Users/talipovmr/usr/local/g09/l801.exe)
 Range of M.O.s used for correlation:     1    13
 NBasis=    13 NAE=     9 NBE=     9 NFC=     0 NFV=     0
 NROrb=     13 NOA=     9 NOB=     9 NVA=     4 NVB=     4
 Leave Link  801 at Mon Jan  7 22:21:31 2013, MaxMem=  134217728 cpu:       0.1
 (Enter /Users/talipovmr/usr/local/g09/l1101.exe)
 Leave Link 1101 at Mon Jan  7 22:21:31 2013, MaxMem=  134217728 cpu:       0.1
 (Enter /Users/talipovmr/usr/local/g09/l1102.exe)
 Symmetrizing basis deriv contribution to polar:
 IMax=3 JMax=2 DiffMx= 0.00D+00
 Leave Link 1102 at Mon Jan  7 22:21:31 2013, MaxMem=  134217728 cpu:       0.1
 (Enter /Users/talipovmr/usr/local/g09/l1110.exe)
 Leave Link 1110 at Mon Jan  7 22:21:31 2013, MaxMem=  134217728 cpu:       0.1
 (Enter /Users/talipovmr/usr/local/g09/l1002.exe)
 Minotr:  Closed shell wavefunction.
 Leave Link 1002 at Mon Jan  7 22:21:31 2013, MaxMem=  134217728 cpu:       0.1
 (Enter /Users/talipovmr/usr/local/g09/l701.exe)
 Compute integral first derivatives.
 ... and contract with generalized density number  0.
 Leave Link  701 at Mon Jan  7 22:21:31 2013, MaxMem=  134217728 cpu:       0.2
 (Enter /Users/talipovmr/usr/local/g09/l702.exe)
 L702 exits ... SP integral derivatives will be done elsewhere.
 Leave Link  702 at Mon Jan  7 22:21:31 2013, MaxMem=  134217728 cpu:       0.1
 (Enter /Users/talipovmr/usr/local/g09/l703.exe)
 Compute integral first derivatives, UseDBF=F ICtDFT=           0.
 Integral derivatives from FoFDir, PRISM(SPDF).
 Calling FoFJK, ICntrl=      2147 FMM=F ISym2X=0 I1Cent= 0 IOpClX= 0 NMat=1 NMatS=1 NMatT=0.
 FoFCou: FMM=F IPFlag=           0 FMFlag=      100000 FMFlg1=         800
         NFxFlg=           0 DoJE=F BraDBF=F KetDBF=F FulRan=T
         Omega=  0.000000  0.000000  1.000000  0.000000  0.000000 ICntrl=    2147 IOpCl=  0
         NMat0=    1 NMatS0=    1 NMatT0=    0 NMatD0=    1 NMtDS0=    0 NMtDT0=    0
         I1Cent=           0 NGrid=           0.
 Symmetry not used in FoFCou.
 Leave Link  703 at Mon Jan  7 22:21:31 2013, MaxMem=  134217728 cpu:       0.1
 (Enter /Users/talipovmr/usr/local/g09/l716.exe)
 Dipole        = 1.12684708D-01-9.93864097D-02-5.91845921D-01
 Polarizability= 0.00000000D+00 0.00000000D+00 0.00000000D+00
                 0.00000000D+00 0.00000000D+00 0.00000000D+00
 -------------------------------------------------------------------
 Center     Atomic                   Forces (Hartrees/Bohr)
 Number     Number              X              Y              Z
 -------------------------------------------------------------------
      1        8           0.000456318    0.000737099   -0.001211830
      2        7           0.000160101   -0.000497455    0.000941056
      3        8          -0.000038868    0.000072026   -0.000691141
      4        1          -0.000577551   -0.000311670    0.000961915
 -------------------------------------------------------------------
 Cartesian Forces:  Max     0.001211830 RMS     0.000659489
 Leave Link  716 at Mon Jan  7 22:21:31 2013, MaxMem=  134217728 cpu:       0.1
 (Enter /Users/talipovmr/usr/local/g09/l123.exe)
 IRC-IRC-IRC-IRC-IRC-IRC-IRC-IRC-IRC-IRC-IRC-IRC-IRC-IRC-IRC-IRC-IRC-IRC
 Pt  2 Step number   1 out of a maximum of 200
 Point Number:   2          Path Number:   1
                    CURRENT STRUCTURE
                Cartesian Coordinates (Ang):                
 ---------------------------------------------------------------------
 Center     Atomic                     Coordinates (Angstroms)
 Number     Number                        X           Y           Z
 ---------------------------------------------------------------------
      1          8                    0.963155   -0.552169    0.002334
      2          7                    0.040025    0.521195    0.071488
      3          8                   -1.059228    0.148917   -0.008028
      4          1                    0.968623   -0.841758   -0.902900
 ---------------------------------------------------------------------
   CHANGE IN THE REACTION COORDINATE =    0.05582
   NET REACTION COORDINATE UP TO THIS POINT =    0.11190
  # OF POINTS ALONG THE PATH =   2
  # OF STEPS =   1

 Calculating another point on the path.
 Point Number  3 in FORWARD path direction.
 Using LQA Reaction Path Following.
   LQA: T_Est iteration completed in    4 iterations.
 IRC-IRC-IRC-IRC-IRC-IRC-IRC-IRC-IRC-IRC-IRC-IRC-IRC-IRC-IRC-IRC-IRC-IRC
 Leave Link  123 at Mon Jan  7 22:21:31 2013, MaxMem=  134217728 cpu:       0.0
 (Enter /Users/talipovmr/usr/local/g09/l202.exe)
                          Input orientation:                          
 ---------------------------------------------------------------------
 Center     Atomic      Atomic             Coordinates (Angstroms)
 Number     Number       Type             X           Y           Z
 ---------------------------------------------------------------------
      1          8           0        0.964085   -0.550267    0.001484
      2          7           0        0.040346    0.520147    0.073624
      3          8           0       -1.059298    0.149044   -0.009402
      4          1           0        0.950511   -0.859407   -0.897297
 ---------------------------------------------------------------------
                    Distance matrix (angstroms):
                    1          2          3          4
     1  O    0.000000
     2  N    1.415727   0.000000
     3  O    2.140848   1.163541   0.000000
     4  H    0.950558   1.916835   2.417574   0.000000
 Symmetry turned off by external request.
 Stoichiometry    HNO2
 Framework group  C1[X(HNO2)]
 Deg. of freedom     6
 Full point group                 C1      NOp   1
 Rotational constants (GHZ):     85.0285429     12.9318003     11.5614233
 Leave Link  202 at Mon Jan  7 22:21:31 2013, MaxMem=  134217728 cpu:       0.0
 (Enter /Users/talipovmr/usr/local/g09/l301.exe)
 Standard basis: VSTO-6G (5D, 7F)
 Ernie: Thresh=  0.10000D-02 Tol=  0.10000D-05 Strict=F.
  NNHCO=     0 NNPyr=     0 NCTC=     0               EPep=         0.000000000
    EC=        32.027479942  ECS=         1.104088419   EG=         0.089500465
   EHC=         0.000000000  EAt=       -27.538897446  AtH=         0.452933404
 EPDDG=         0.000000000  ECC=        33.221068826 EAtT=        27.991830850
 Integral buffers will be    131072 words long.
 Regular integral format.
 Two-electron integral symmetry is turned off.
    13 basis functions,    78 primitive gaussians,    13 cartesian basis functions
     9 alpha electrons        9 beta electrons
       nuclear repulsion energy        61.2128996766 Hartrees.
 IExCor=    0 DFT=F Ex=HF Corr=None ExCW=0 ScaHFX=  1.000000
 ScaDFX=  1.000000  1.000000  1.000000  1.000000 ScalE2=  1.000000  1.000000
 IRadAn=      0 IRanWt=     -1 IRanGd=            0 ICorTp=0
 Leave Link  301 at Mon Jan  7 22:21:32 2013, MaxMem=  134217728 cpu:       0.1
 (Enter /Users/talipovmr/usr/local/g09/l302.exe)
 Do NDO integrals.
 NPDir=0 NMtPBC=     1 NCelOv=     1 NCel=       1 NClECP=     1 NCelD=      1
         NCelK=      1 NCelE2=     1 NClLst=     1 CellRange=     0.0.
 One-electron integrals computed using PRISM.
 NBasis=    13 RedAO= F  NBF=    13
 NBsUse=    13 1.00D-04 NBFU=    13
 Leave Link  302 at Mon Jan  7 22:21:32 2013, MaxMem=  134217728 cpu:       0.2
 (Enter /Users/talipovmr/usr/local/g09/l303.exe)
 DipDrv:  MaxL=1.
 Leave Link  303 at Mon Jan  7 22:21:32 2013, MaxMem=  134217728 cpu:       0.1
 (Enter /Users/talipovmr/usr/local/g09/l401.exe)
 Initial guess read from the read-write file.
 B after Tr=     0.000000    0.000000    0.000000
         Rot=    1.000000    0.000000    0.000000    0.000000 Ang=   0.00 deg.
 Guess basis will be translated and rotated to current coordinates.
 Leave Link  401 at Mon Jan  7 22:21:32 2013, MaxMem=  134217728 cpu:       0.2
 (Enter /Users/talipovmr/usr/local/g09/l502.exe)
 Closed shell SCF:
 Requested convergence on RMS density matrix=1.00D-08 within 128 cycles.
 Requested convergence on MAX density matrix=1.00D-06.
 Requested convergence on             energy=1.00D-06.
 Level shift goal  0.100 maximum shift  0.100.
 No special actions if energy rises.
 Dynamic level shift is on during FON iterations.
 Using DIIS extrapolation, IDIIS=    10.
 Overlap will be assumed to be unity.
 Two-electron integral symmetry not used.
 Keep J ints in memory in canonical form, NReq=879130.
 IEnd=       78620 IEndB=       78620 NGot=   134217728 MDV=   134155687
 LenX=   134155687 LenY=   134154805
 Symmetry not used in FoFDir.
 MinBra= 0 MaxBra= 1 Meth= 9.
 IRaf=       0 NMat=   1 IRICut=       1 DoRegI=T DoRafI=F ISym2E= 0 JSym2E=0.

 Cycle   1  Pass 1  IDiag  1:
 E=-0.119501851772696E-01
 DIIS: error= 1.18D-03 at cycle   1 NSaved=   1.
 NSaved= 1 IEnMin= 1 EnMin=-0.119501851772696E-01 IErMin= 1 ErrMin= 1.18D-03
 ErrMax= 1.18D-03 EMaxC= 1.00D+00 BMatC= 2.54D-05 BMatP= 2.54D-05
 IDIUse=1 WtCom= 1.00D+00 WtEn= 0.00D+00
 Coeff-Com:  0.100D+01
 Coeff:      0.100D+01
 Gap=     0.384 Goal=     0.100 Shift=    0.000
 GapD=    0.384 DampG=1.000 DampE=1.000 DampFc=1.0000 IDamp=-1.
 RMSDP=8.47D-04 MaxDP=3.91D-03              OVMax= 0.00D+00

 Cycle   2  Pass 1  IDiag  3:
 E=-0.120704542719210E-01 Delta-E=       -0.000120269095 Rises=F Damp=F
 DIIS: error= 7.06D-04 at cycle   2 NSaved=   2.
 NSaved= 2 IEnMin= 2 EnMin=-0.120704542719210E-01 IErMin= 2 ErrMin= 7.06D-04
 ErrMax= 7.06D-04 EMaxC= 1.00D+00 BMatC= 8.01D-06 BMatP= 2.54D-05
 IDIUse=1 WtCom= 1.00D+00 WtEn= 0.00D+00
 Coeff-Com: -0.106D+01 0.206D+01
 Coeff:     -0.106D+01 0.206D+01
 Gap=     0.385 Goal=     0.100 Shift=    0.000
 RMSDP=1.05D-03 MaxDP=4.84D-03 DE=-1.20D-04 OVMax= 0.00D+00

 Cycle   3  Pass 1  IDiag  3:
 E=-0.121340017085956E-01 Delta-E=       -0.000063547437 Rises=F Damp=F
 DIIS: error= 1.37D-04 at cycle   3 NSaved=   3.
 NSaved= 3 IEnMin= 3 EnMin=-0.121340017085956E-01 IErMin= 3 ErrMin= 1.37D-04
 ErrMax= 1.37D-04 EMaxC= 1.00D+00 BMatC= 3.99D-07 BMatP= 8.01D-06
 IDIUse=1 WtCom= 1.00D+00 WtEn= 0.00D+00
 Coeff-Com:  0.532D+00-0.118D+01 0.165D+01
 Coeff:      0.532D+00-0.118D+01 0.165D+01
 Gap=     0.385 Goal=     0.100 Shift=    0.000
 RMSDP=2.78D-04 MaxDP=1.11D-03 DE=-6.35D-05 OVMax= 0.00D+00

 Cycle   4  Pass 1  IDiag  3:
 E=-0.121376249788057E-01 Delta-E=       -0.000003623270 Rises=F Damp=F
 DIIS: error= 3.07D-05 at cycle   4 NSaved=   4.
 NSaved= 4 IEnMin= 4 EnMin=-0.121376249788057E-01 IErMin= 4 ErrMin= 3.07D-05
 ErrMax= 3.07D-05 EMaxC= 1.00D+00 BMatC= 2.86D-08 BMatP= 3.99D-07
 IDIUse=1 WtCom= 1.00D+00 WtEn= 0.00D+00
 Coeff-Com: -0.405D+00 0.909D+00-0.139D+01 0.188D+01
 Coeff:     -0.405D+00 0.909D+00-0.139D+01 0.188D+01
 Gap=     0.385 Goal=     0.100 Shift=    0.000
 RMSDP=8.11D-05 MaxDP=2.39D-04 DE=-3.62D-06 OVMax= 0.00D+00

 Cycle   5  Pass 1  IDiag  3:
 E=-0.121379428809618E-01 Delta-E=       -0.000000317902 Rises=F Damp=F
 DIIS: error= 1.84D-05 at cycle   5 NSaved=   5.
 NSaved= 5 IEnMin= 5 EnMin=-0.121379428809618E-01 IErMin= 5 ErrMin= 1.84D-05
 ErrMax= 1.84D-05 EMaxC= 1.00D+00 BMatC= 4.57D-09 BMatP= 2.86D-08
 IDIUse=1 WtCom= 1.00D+00 WtEn= 0.00D+00
 Coeff-Com:  0.324D+00-0.732D+00 0.115D+01-0.181D+01 0.207D+01
 Coeff:      0.324D+00-0.732D+00 0.115D+01-0.181D+01 0.207D+01
 Gap=     0.385 Goal=     0.100 Shift=    0.000
 RMSDP=4.43D-05 MaxDP=1.88D-04 DE=-3.18D-07 OVMax= 0.00D+00

 Cycle   6  Pass 1  IDiag  3:
 E=-0.121380189232951E-01 Delta-E=       -0.000000076042 Rises=F Damp=F
 DIIS: error= 9.16D-06 at cycle   6 NSaved=   6.
 NSaved= 6 IEnMin= 6 EnMin=-0.121380189232951E-01 IErMin= 6 ErrMin= 9.16D-06
 ErrMax= 9.16D-06 EMaxC= 1.00D+00 BMatC= 1.02D-09 BMatP= 4.57D-09
 IDIUse=1 WtCom= 1.00D+00 WtEn= 0.00D+00
 Coeff-Com: -0.186D+00 0.420D+00-0.663D+00 0.110D+01-0.176D+01 0.209D+01
 Coeff:     -0.186D+00 0.420D+00-0.663D+00 0.110D+01-0.176D+01 0.209D+01
 Gap=     0.385 Goal=     0.100 Shift=    0.000
 RMSDP=2.81D-05 MaxDP=1.33D-04 DE=-7.60D-08 OVMax= 0.00D+00

 Cycle   7  Pass 1  IDiag  3:
 E=-0.121380388683434E-01 Delta-E=       -0.000000019945 Rises=F Damp=F
 DIIS: error= 2.94D-06 at cycle   7 NSaved=   7.
 NSaved= 7 IEnMin= 7 EnMin=-0.121380388683434E-01 IErMin= 7 ErrMin= 2.94D-06
 ErrMax= 2.94D-06 EMaxC= 1.00D+00 BMatC= 1.33D-10 BMatP= 1.02D-09
 IDIUse=1 WtCom= 1.00D+00 WtEn= 0.00D+00
 Coeff-Com:  0.226D-01-0.511D-01 0.820D-01-0.159D+00 0.414D+00-0.932D+00
 Coeff-Com:  0.162D+01
 Coeff:      0.226D-01-0.511D-01 0.820D-01-0.159D+00 0.414D+00-0.932D+00
 Coeff:      0.162D+01
 Gap=     0.385 Goal=     0.100 Shift=    0.000
 RMSDP=9.02D-06 MaxDP=4.49D-05 DE=-1.99D-08 OVMax= 0.00D+00

 Cycle   8  Pass 1  IDiag  3:
 E=-0.121380408839116E-01 Delta-E=       -0.000000002016 Rises=F Damp=F
 DIIS: error= 7.25D-07 at cycle   8 NSaved=   8.
 NSaved= 8 IEnMin= 8 EnMin=-0.121380408839116E-01 IErMin= 8 ErrMin= 7.25D-07
 ErrMax= 7.25D-07 EMaxC= 1.00D+00 BMatC= 1.49D-11 BMatP= 1.33D-10
 IDIUse=1 WtCom= 1.00D+00 WtEn= 0.00D+00
 Coeff-Com:  0.120D-01-0.272D-01 0.420D-01-0.566D-01 0.489D-02 0.243D+00
 Coeff-Com: -0.931D+00 0.171D+01
 Coeff:      0.120D-01-0.272D-01 0.420D-01-0.566D-01 0.489D-02 0.243D+00
 Coeff:     -0.931D+00 0.171D+01
 Gap=     0.385 Goal=     0.100 Shift=    0.000
 RMSDP=2.31D-06 MaxDP=1.08D-05 DE=-2.02D-09 OVMax= 0.00D+00

 Cycle   9  Pass 1  IDiag  3:
 E=-0.121380410350440E-01 Delta-E=       -0.000000000151 Rises=F Damp=F
 DIIS: error= 1.11D-07 at cycle   9 NSaved=   9.
 NSaved= 9 IEnMin= 9 EnMin=-0.121380410350440E-01 IErMin= 9 ErrMin= 1.11D-07
 ErrMax= 1.11D-07 EMaxC= 1.00D+00 BMatC= 4.04D-13 BMatP= 1.49D-11
 IDIUse=1 WtCom= 1.00D+00 WtEn= 0.00D+00
 Coeff-Com: -0.659D-02 0.149D-01-0.231D-01 0.335D-01-0.235D-01-0.600D-01
 Coeff-Com:  0.322D+00-0.724D+00 0.147D+01
 Coeff:     -0.659D-02 0.149D-01-0.231D-01 0.335D-01-0.235D-01-0.600D-01
 Coeff:      0.322D+00-0.724D+00 0.147D+01
 Gap=     0.385 Goal=     0.100 Shift=    0.000
 RMSDP=2.40D-07 MaxDP=9.14D-07 DE=-1.51D-10 OVMax= 0.00D+00

 Cycle  10  Pass 1  IDiag  3:
 E=-0.121380410376162E-01 Delta-E=       -0.000000000003 Rises=F Damp=F
 DIIS: error= 2.09D-08 at cycle  10 NSaved=  10.
 NSaved=10 IEnMin=10 EnMin=-0.121380410376162E-01 IErMin=10 ErrMin= 2.09D-08
 ErrMax= 2.09D-08 EMaxC= 1.00D+00 BMatC= 1.11D-14 BMatP= 4.04D-13
 IDIUse=1 WtCom= 1.00D+00 WtEn= 0.00D+00
 Coeff-Com:  0.148D-02-0.333D-02 0.513D-02-0.722D-02 0.452D-02 0.152D-01
 Coeff-Com: -0.771D-01 0.178D+00-0.446D+00 0.133D+01
 Coeff:      0.148D-02-0.333D-02 0.513D-02-0.722D-02 0.452D-02 0.152D-01
 Coeff:     -0.771D-01 0.178D+00-0.446D+00 0.133D+01
 Gap=     0.385 Goal=     0.100 Shift=    0.000
 RMSDP=3.29D-08 MaxDP=1.16D-07 DE=-2.57D-12 OVMax= 0.00D+00

 Cycle  11  Pass 1  IDiag  3:
 E=-0.121380410377085E-01 Delta-E=        0.000000000000 Rises=F Damp=F
 DIIS: error= 6.30D-09 at cycle  11 NSaved=  11.
 NSaved=11 IEnMin=11 EnMin=-0.121380410377085E-01 IErMin=11 ErrMin= 6.30D-09
 ErrMax= 6.30D-09 EMaxC= 1.00D+00 BMatC= 1.31D-15 BMatP= 1.11D-14
 IDIUse=1 WtCom= 1.00D+00 WtEn= 0.00D+00
 Coeff-Com: -0.276D-03 0.618D-03-0.936D-03 0.116D-02-0.748D-04-0.505D-02
 Coeff-Com:  0.202D-01-0.460D-01 0.138D+00-0.719D+00 0.161D+01
 Coeff:     -0.276D-03 0.618D-03-0.936D-03 0.116D-02-0.748D-04-0.505D-02
 Coeff:      0.202D-01-0.460D-01 0.138D+00-0.719D+00 0.161D+01
 Gap=     0.385 Goal=     0.100 Shift=    0.000
 RMSDP=1.45D-08 MaxDP=5.23D-08 DE=-9.24D-14 OVMax= 0.00D+00

 Cycle  12  Pass 1  IDiag  3:
 E=-0.121380410377157E-01 Delta-E=        0.000000000000 Rises=F Damp=F
 DIIS: error= 2.38D-09 at cycle  12 NSaved=  12.
 NSaved=12 IEnMin=12 EnMin=-0.121380410377157E-01 IErMin=12 ErrMin= 2.38D-09
 ErrMax= 2.38D-09 EMaxC= 1.00D+00 BMatC= 1.17D-16 BMatP= 1.31D-15
 IDIUse=1 WtCom= 1.00D+00 WtEn= 0.00D+00
 Coeff-Com:  0.730D-05-0.141D-04 0.588D-05 0.121D-03-0.641D-03 0.203D-02
 Coeff-Com: -0.566D-02 0.124D-01-0.452D-01 0.333D+00-0.103D+01 0.173D+01
 Coeff:      0.730D-05-0.141D-04 0.588D-05 0.121D-03-0.641D-03 0.203D-02
 Coeff:     -0.566D-02 0.124D-01-0.452D-01 0.333D+00-0.103D+01 0.173D+01
 Gap=     0.385 Goal=     0.100 Shift=    0.000
 RMSDP=4.82D-09 MaxDP=1.78D-08 DE=-7.11D-15 OVMax= 0.00D+00

 Cycle  13  Pass 2  IDiag  1:
 Gap=     0.385 Goal=     0.100 Shift=    0.000
 RMSDP=4.82D-09 MaxDP=1.78D-08 DE=-7.11D-15 OVMax= 0.00D+00

 SCF Done:  E(RPM3) = -0.121380410377E-01 A.U. after   13 cycles
             Convg  =    0.4816D-08             -V/T =  0.9997
 KE=-4.669034568086D+01 PE=-6.183054383510D+01 EE= 4.729585179835D+01
 Leave Link  502 at Mon Jan  7 22:21:32 2013, MaxMem=  134217728 cpu:       0.1
 (Enter /Users/talipovmr/usr/local/g09/l508.exe)
 QCSCF skips out because SCF is already converged.
 Leave Link  508 at Mon Jan  7 22:21:32 2013, MaxMem=  134217728 cpu:       0.0
 (Enter /Users/talipovmr/usr/local/g09/l801.exe)
 Range of M.O.s used for correlation:     1    13
 NBasis=    13 NAE=     9 NBE=     9 NFC=     0 NFV=     0
 NROrb=     13 NOA=     9 NOB=     9 NVA=     4 NVB=     4
 Leave Link  801 at Mon Jan  7 22:21:32 2013, MaxMem=  134217728 cpu:       0.1
 (Enter /Users/talipovmr/usr/local/g09/l1101.exe)
 Leave Link 1101 at Mon Jan  7 22:21:32 2013, MaxMem=  134217728 cpu:       0.1
 (Enter /Users/talipovmr/usr/local/g09/l1102.exe)
 Symmetrizing basis deriv contribution to polar:
 IMax=3 JMax=2 DiffMx= 0.00D+00
 Leave Link 1102 at Mon Jan  7 22:21:32 2013, MaxMem=  134217728 cpu:       0.1
 (Enter /Users/talipovmr/usr/local/g09/l1110.exe)
 Leave Link 1110 at Mon Jan  7 22:21:32 2013, MaxMem=  134217728 cpu:       0.1
 (Enter /Users/talipovmr/usr/local/g09/l1002.exe)
 Minotr:  Closed shell wavefunction.
 Leave Link 1002 at Mon Jan  7 22:21:32 2013, MaxMem=  134217728 cpu:       0.1
 (Enter /Users/talipovmr/usr/local/g09/l701.exe)
 Compute integral first derivatives.
 ... and contract with generalized density number  0.
 Leave Link  701 at Mon Jan  7 22:21:32 2013, MaxMem=  134217728 cpu:       0.2
 (Enter /Users/talipovmr/usr/local/g09/l702.exe)
 L702 exits ... SP integral derivatives will be done elsewhere.
 Leave Link  702 at Mon Jan  7 22:21:32 2013, MaxMem=  134217728 cpu:       0.1
 (Enter /Users/talipovmr/usr/local/g09/l703.exe)
 Compute integral first derivatives, UseDBF=F ICtDFT=           0.
 Integral derivatives from FoFDir, PRISM(SPDF).
 Calling FoFJK, ICntrl=      2147 FMM=F ISym2X=0 I1Cent= 0 IOpClX= 0 NMat=1 NMatS=1 NMatT=0.
 FoFCou: FMM=F IPFlag=           0 FMFlag=      100000 FMFlg1=         800
         NFxFlg=           0 DoJE=F BraDBF=F KetDBF=F FulRan=T
         Omega=  0.000000  0.000000  1.000000  0.000000  0.000000 ICntrl=    2147 IOpCl=  0
         NMat0=    1 NMatS0=    1 NMatT0=    0 NMatD0=    1 NMtDS0=    0 NMtDT0=    0
         I1Cent=           0 NGrid=           0.
 Symmetry not used in FoFCou.
 Leave Link  703 at Mon Jan  7 22:21:32 2013, MaxMem=  134217728 cpu:       0.1
 (Enter /Users/talipovmr/usr/local/g09/l716.exe)
 Dipole        = 1.05700243D-01-1.13116824D-01-5.87675894D-01
 Polarizability= 0.00000000D+00 0.00000000D+00 0.00000000D+00
                 0.00000000D+00 0.00000000D+00 0.00000000D+00
 -------------------------------------------------------------------
 Center     Atomic                   Forces (Hartrees/Bohr)
 Number     Number              X              Y              Z
 -------------------------------------------------------------------
      1        8           0.000638322    0.001234506   -0.001427655
      2        7           0.000254553   -0.000763732    0.001412075
      3        8          -0.000048467    0.000105610   -0.001036133
      4        1          -0.000844408   -0.000576383    0.001051714
 -------------------------------------------------------------------
 Cartesian Forces:  Max     0.001427655 RMS     0.000906004
 Leave Link  716 at Mon Jan  7 22:21:32 2013, MaxMem=  134217728 cpu:       0.1
 (Enter /Users/talipovmr/usr/local/g09/l123.exe)
[...]
 Leave Link  303 at Mon Jan  7 22:22:08 2013, MaxMem=  134217728 cpu:       0.1
 (Enter /Users/talipovmr/usr/local/g09/l401.exe)
 Initial guess read from the read-write file.
 B after Tr=     0.000000    0.000000    0.000000
         Rot=    1.000000    0.000000    0.000000    0.000000 Ang=   0.00 deg.
 Guess basis will be translated and rotated to current coordinates.
 Leave Link  401 at Mon Jan  7 22:22:08 2013, MaxMem=  134217728 cpu:       0.3
 (Enter /Users/talipovmr/usr/local/g09/l502.exe)
 Closed shell SCF:
 Requested convergence on RMS density matrix=1.00D-08 within 128 cycles.
 Requested convergence on MAX density matrix=1.00D-06.
 Requested convergence on             energy=1.00D-06.
 Level shift goal  0.100 maximum shift  0.100.
 No special actions if energy rises.
 Dynamic level shift is on during FON iterations.
 Using DIIS extrapolation, IDIIS=    10.
 Overlap will be assumed to be unity.
 Two-electron integral symmetry not used.
 Keep J ints in memory in canonical form, NReq=879130.
 IEnd=       78620 IEndB=       78620 NGot=   134217728 MDV=   134155687
 LenX=   134155687 LenY=   134154805
 Symmetry not used in FoFDir.
 MinBra= 0 MaxBra= 1 Meth= 9.
 IRaf=       0 NMat=   1 IRICut=       1 DoRegI=T DoRafI=F ISym2E= 0 JSym2E=0.

 Cycle   1  Pass 1  IDiag  1:
 E=-0.211162809992373E-01
 DIIS: error= 1.29D-03 at cycle   1 NSaved=   1.
 NSaved= 1 IEnMin= 1 EnMin=-0.211162809992373E-01 IErMin= 1 ErrMin= 1.29D-03
 ErrMax= 1.29D-03 EMaxC= 1.00D+00 BMatC= 2.32D-05 BMatP= 2.32D-05
 IDIUse=1 WtCom= 1.00D+00 WtEn= 0.00D+00
 Coeff-Com:  0.100D+01
 Coeff:      0.100D+01
 Gap=     0.401 Goal=     0.100 Shift=    0.000
 GapD=    0.401 DampG=2.000 DampE=1.000 DampFc=2.0000 IDamp=-1.
 RMSDP=7.48D-04 MaxDP=4.35D-03              OVMax= 0.00D+00

 Cycle   2  Pass 1  IDiag  3:
 E=-0.212143042288773E-01 Delta-E=       -0.000098023230 Rises=F Damp=F
 DIIS: error= 7.55D-04 at cycle   2 NSaved=   2.
 NSaved= 2 IEnMin= 2 EnMin=-0.212143042288773E-01 IErMin= 2 ErrMin= 7.55D-04
 ErrMax= 7.55D-04 EMaxC= 1.00D+00 BMatC= 6.03D-06 BMatP= 2.32D-05
 IDIUse=1 WtCom= 1.00D+00 WtEn= 0.00D+00
 Coeff-Com: -0.853D+00 0.185D+01
 Coeff:     -0.853D+00 0.185D+01
 Gap=     0.401 Goal=     0.100 Shift=    0.000
 RMSDP=7.65D-04 MaxDP=4.57D-03 DE=-9.80D-05 OVMax= 0.00D+00

 Cycle   3  Pass 1  IDiag  3:
 E=-0.212545160579722E-01 Delta-E=       -0.000040211829 Rises=F Damp=F
 DIIS: error= 1.65D-04 at cycle   3 NSaved=   3.
 NSaved= 3 IEnMin= 3 EnMin=-0.212545160579722E-01 IErMin= 3 ErrMin= 1.65D-04
 ErrMax= 1.65D-04 EMaxC= 1.00D+00 BMatC= 2.72D-07 BMatP= 6.03D-06
 IDIUse=1 WtCom= 1.00D+00 WtEn= 0.00D+00
 Coeff-Com:  0.379D+00-0.968D+00 0.159D+01
 Coeff:      0.379D+00-0.968D+00 0.159D+01
 Gap=     0.401 Goal=     0.100 Shift=    0.000
 RMSDP=1.92D-04 MaxDP=1.12D-03 DE=-4.02D-05 OVMax= 0.00D+00

 Cycle   4  Pass 1  IDiag  3:
 E=-0.212564766423426E-01 Delta-E=       -0.000001960584 Rises=F Damp=F
 DIIS: error= 1.60D-05 at cycle   4 NSaved=   4.
 NSaved= 4 IEnMin= 4 EnMin=-0.212564766423426E-01 IErMin= 4 ErrMin= 1.60D-05
 ErrMax= 1.60D-05 EMaxC= 1.00D+00 BMatC= 8.15D-09 BMatP= 2.72D-07
 IDIUse=1 WtCom= 1.00D+00 WtEn= 0.00D+00
 Coeff-Com: -0.123D+00 0.325D+00-0.639D+00 0.144D+01
 Coeff:     -0.123D+00 0.325D+00-0.639D+00 0.144D+01
 Gap=     0.401 Goal=     0.100 Shift=    0.000
 RMSDP=2.68D-05 MaxDP=1.10D-04 DE=-1.96D-06 OVMax= 0.00D+00

 Cycle   5  Pass 1  IDiag  3:
 E=-0.212565269465230E-01 Delta-E=       -0.000000050304 Rises=F Damp=F
 DIIS: error= 3.43D-06 at cycle   5 NSaved=   5.
 NSaved= 5 IEnMin= 5 EnMin=-0.212565269465230E-01 IErMin= 5 ErrMin= 3.43D-06
 ErrMax= 3.43D-06 EMaxC= 1.00D+00 BMatC= 4.68D-10 BMatP= 8.15D-09
 IDIUse=1 WtCom= 1.00D+00 WtEn= 0.00D+00
 Coeff-Com:  0.780D-02-0.222D-01 0.618D-01-0.379D+00 0.133D+01
 Coeff:      0.780D-02-0.222D-01 0.618D-01-0.379D+00 0.133D+01
 Gap=     0.401 Goal=     0.100 Shift=    0.000
 RMSDP=6.60D-06 MaxDP=2.25D-05 DE=-5.03D-08 OVMax= 0.00D+00

 Cycle   6  Pass 1  IDiag  3:
 E=-0.212565300259939E-01 Delta-E=       -0.000000003079 Rises=F Damp=F
 DIIS: error= 1.26D-06 at cycle   6 NSaved=   6.
 NSaved= 6 IEnMin= 6 EnMin=-0.212565300259939E-01 IErMin= 6 ErrMin= 1.26D-06
 ErrMax= 1.26D-06 EMaxC= 1.00D+00 BMatC= 4.80D-11 BMatP= 4.68D-10
 IDIUse=1 WtCom= 1.00D+00 WtEn= 0.00D+00
 Coeff-Com:  0.619D-03-0.320D-03-0.128D-01 0.194D+00-0.905D+00 0.172D+01
 Coeff:      0.619D-03-0.320D-03-0.128D-01 0.194D+00-0.905D+00 0.172D+01
 Gap=     0.401 Goal=     0.100 Shift=    0.000
 RMSDP=2.76D-06 MaxDP=1.10D-05 DE=-3.08D-09 OVMax= 0.00D+00

 Cycle   7  Pass 1  IDiag  3:
 E=-0.212565304985475E-01 Delta-E=       -0.000000000473 Rises=F Damp=F
 DIIS: error= 8.06D-07 at cycle   7 NSaved=   7.
 NSaved= 7 IEnMin= 7 EnMin=-0.212565304985475E-01 IErMin= 7 ErrMin= 8.06D-07
 ErrMax= 8.06D-07 EMaxC= 1.00D+00 BMatC= 8.95D-12 BMatP= 4.80D-11
 IDIUse=1 WtCom= 1.00D+00 WtEn= 0.00D+00
 Coeff-Com: -0.192D-02 0.403D-02 0.292D-02-0.143D+00 0.741D+00-0.175D+01
 Coeff-Com:  0.214D+01
 Coeff:     -0.192D-02 0.403D-02 0.292D-02-0.143D+00 0.741D+00-0.175D+01
 Coeff:      0.214D+01
 Gap=     0.401 Goal=     0.100 Shift=    0.000
 RMSDP=1.90D-06 MaxDP=8.92D-06 DE=-4.73D-10 OVMax= 0.00D+00

 Cycle   8  Pass 1  IDiag  3:
 E=-0.212565306346164E-01 Delta-E=       -0.000000000136 Rises=F Damp=F
 DIIS: error= 3.34D-07 at cycle   8 NSaved=   8.
 NSaved= 8 IEnMin= 8 EnMin=-0.212565306346164E-01 IErMin= 8 ErrMin= 3.34D-07
 ErrMax= 3.34D-07 EMaxC= 1.00D+00 BMatC= 1.37D-12 BMatP= 8.95D-12
 IDIUse=1 WtCom= 1.00D+00 WtEn= 0.00D+00
 Coeff-Com:  0.166D-02-0.347D-02-0.250D-02 0.119D+00-0.619D+00 0.151D+01
 Coeff-Com: -0.222D+01 0.221D+01
 Coeff:      0.166D-02-0.347D-02-0.250D-02 0.119D+00-0.619D+00 0.151D+01
 Coeff:     -0.222D+01 0.221D+01
 Gap=     0.401 Goal=     0.100 Shift=    0.000
 RMSDP=9.61D-07 MaxDP=4.41D-06 DE=-1.36D-10 OVMax= 0.00D+00

 Cycle   9  Pass 1  IDiag  3:
 E=-0.212565306580430E-01 Delta-E=       -0.000000000023 Rises=F Damp=F
 DIIS: error= 6.56D-08 at cycle   9 NSaved=   9.
 NSaved= 9 IEnMin= 9 EnMin=-0.212565306580430E-01 IErMin= 9 ErrMin= 6.56D-08
 ErrMax= 6.56D-08 EMaxC= 1.00D+00 BMatC= 9.67D-14 BMatP= 1.37D-12
 IDIUse=1 WtCom= 1.00D+00 WtEn= 0.00D+00
 Coeff-Com: -0.746D-03 0.161D-02 0.653D-03-0.487D-01 0.258D+00-0.650D+00
 Coeff-Com:  0.101D+01-0.126D+01 0.168D+01
 Coeff:     -0.746D-03 0.161D-02 0.653D-03-0.487D-01 0.258D+00-0.650D+00
 Coeff:      0.101D+01-0.126D+01 0.168D+01
 Gap=     0.401 Goal=     0.100 Shift=    0.000
 RMSDP=2.13D-07 MaxDP=8.70D-07 DE=-2.34D-11 OVMax= 0.00D+00

 Cycle  10  Pass 1  IDiag  3:
 E=-0.212565306592012E-01 Delta-E=       -0.000000000001 Rises=F Damp=F
 DIIS: error= 1.12D-08 at cycle  10 NSaved=  10.
 NSaved=10 IEnMin=10 EnMin=-0.212565306592012E-01 IErMin=10 ErrMin= 1.12D-08
 ErrMax= 1.12D-08 EMaxC= 1.00D+00 BMatC= 4.95D-15 BMatP= 9.67D-14
 IDIUse=1 WtCom= 1.00D+00 WtEn= 0.00D+00
 Coeff-Com:  0.308D-03-0.690D-03 0.106D-03 0.151D-01-0.828D-01 0.214D+00
 Coeff-Com: -0.348D+00 0.465D+00-0.799D+00 0.154D+01
 Coeff:      0.308D-03-0.690D-03 0.106D-03 0.151D-01-0.828D-01 0.214D+00
 Coeff:     -0.348D+00 0.465D+00-0.799D+00 0.154D+01
 Gap=     0.401 Goal=     0.100 Shift=    0.000
 RMSDP=3.27D-08 MaxDP=1.07D-07 DE=-1.16D-12 OVMax= 0.00D+00

 Cycle  11  Pass 1  IDiag  3:
 E=-0.212565306592509E-01 Delta-E=        0.000000000000 Rises=F Damp=F
 DIIS: error= 2.26D-09 at cycle  11 NSaved=  11.
 NSaved=11 IEnMin=11 EnMin=-0.212565306592509E-01 IErMin=11 ErrMin= 2.26D-09
 ErrMax= 2.26D-09 EMaxC= 1.00D+00 BMatC= 2.77D-16 BMatP= 4.95D-15
 IDIUse=1 WtCom= 1.00D+00 WtEn= 0.00D+00
 Coeff-Com: -0.151D-03 0.343D-03-0.101D-03-0.684D-02 0.380D-01-0.992D-01
 Coeff-Com:  0.163D+00-0.222D+00 0.403D+00-0.934D+00 0.166D+01
 Coeff:     -0.151D-03 0.343D-03-0.101D-03-0.684D-02 0.380D-01-0.992D-01
 Coeff:      0.163D+00-0.222D+00 0.403D+00-0.934D+00 0.166D+01
 Gap=     0.401 Goal=     0.100 Shift=    0.000
 RMSDP=6.74D-09 MaxDP=2.56D-08 DE=-4.97D-14 OVMax= 0.00D+00

 Cycle  12  Pass 2  IDiag  1:
 Gap=     0.401 Goal=     0.100 Shift=    0.000
 RMSDP=6.74D-09 MaxDP=2.56D-08 DE=-4.97D-14 OVMax= 0.00D+00

 SCF Done:  E(RPM3) = -0.212565306593E-01 A.U. after   12 cycles
             Convg  =    0.6737D-08             -V/T =  0.9995
 KE=-4.677610159396D+01 PE=-6.278148565314D+01 EE= 4.774177750793D+01
 Leave Link  502 at Mon Jan  7 22:22:08 2013, MaxMem=  134217728 cpu:       0.1
 (Enter /Users/talipovmr/usr/local/g09/l508.exe)
 QCSCF skips out because SCF is already converged.
 Leave Link  508 at Mon Jan  7 22:22:08 2013, MaxMem=  134217728 cpu:       0.0
 (Enter /Users/talipovmr/usr/local/g09/l801.exe)
 Range of M.O.s used for correlation:     1    13
 NBasis=    13 NAE=     9 NBE=     9 NFC=     0 NFV=     0
 NROrb=     13 NOA=     9 NOB=     9 NVA=     4 NVB=     4
 Leave Link  801 at Mon Jan  7 22:22:08 2013, MaxMem=  134217728 cpu:       0.1
 (Enter /Users/talipovmr/usr/local/g09/l1101.exe)
 Leave Link 1101 at Mon Jan  7 22:22:08 2013, MaxMem=  134217728 cpu:       0.1
 (Enter /Users/talipovmr/usr/local/g09/l1102.exe)
 Symmetrizing basis deriv contribution to polar:
 IMax=3 JMax=2 DiffMx= 0.00D+00
 Leave Link 1102 at Mon Jan  7 22:22:08 2013, MaxMem=  134217728 cpu:       0.1
 (Enter /Users/talipovmr/usr/local/g09/l1110.exe)
 Leave Link 1110 at Mon Jan  7 22:22:08 2013, MaxMem=  134217728 cpu:       0.1
 (Enter /Users/talipovmr/usr/local/g09/l1002.exe)
 Minotr:  Closed shell wavefunction.
 Leave Link 1002 at Mon Jan  7 22:22:08 2013, MaxMem=  134217728 cpu:       0.1
 (Enter /Users/talipovmr/usr/local/g09/l701.exe)
 Compute integral first derivatives.
 ... and contract with generalized density number  0.
 Leave Link  701 at Mon Jan  7 22:22:08 2013, MaxMem=  134217728 cpu:       0.1
 (Enter /Users/talipovmr/usr/local/g09/l702.exe)
 L702 exits ... SP integral derivatives will be done elsewhere.
 Leave Link  702 at Mon Jan  7 22:22:08 2013, MaxMem=  134217728 cpu:       0.1
 (Enter /Users/talipovmr/usr/local/g09/l703.exe)
 Compute integral first derivatives, UseDBF=F ICtDFT=           0.
 Integral derivatives from FoFDir, PRISM(SPDF).
 Calling FoFJK, ICntrl=      2147 FMM=F ISym2X=0 I1Cent= 0 IOpClX= 0 NMat=1 NMatS=1 NMatT=0.
 FoFCou: FMM=F IPFlag=           0 FMFlag=      100000 FMFlg1=         800
         NFxFlg=           0 DoJE=F BraDBF=F KetDBF=F FulRan=T
         Omega=  0.000000  0.000000  1.000000  0.000000  0.000000 ICntrl=    2147 IOpCl=  0
         NMat0=    1 NMatS0=    1 NMatT0=    0 NMatD0=    1 NMtDS0=    0 NMtDT0=    0
         I1Cent=           0 NGrid=           0.
 Symmetry not used in FoFCou.
 Leave Link  703 at Mon Jan  7 22:22:09 2013, MaxMem=  134217728 cpu:       0.1
 (Enter /Users/talipovmr/usr/local/g09/l716.exe)
 Dipole        = 1.02674326D-01-4.69025699D-01-1.38487619D-01
 Polarizability= 0.00000000D+00 0.00000000D+00 0.00000000D+00
                 0.00000000D+00 0.00000000D+00 0.00000000D+00
 -------------------------------------------------------------------
 Center     Atomic                   Forces (Hartrees/Bohr)
 Number     Number              X              Y              Z
 -------------------------------------------------------------------
      1        8          -0.000306731   -0.000330590   -0.000493836
      2        7          -0.000009523    0.000017814    0.000325905
      3        8           0.000184699   -0.000100613   -0.000208990
      4        1           0.000131555    0.000413390    0.000376922
 -------------------------------------------------------------------
 Cartesian Forces:  Max     0.000493836 RMS     0.000284612
 Leave Link  716 at Mon Jan  7 22:22:09 2013, MaxMem=  134217728 cpu:       0.1
 (Enter /Users/talipovmr/usr/local/g09/l123.exe)
 IRC-IRC-IRC-IRC-IRC-IRC-IRC-IRC-IRC-IRC-IRC-IRC-IRC-IRC-IRC-IRC-IRC-IRC
 Pt 37 Step number   1 out of a maximum of 200
 Point Number:  37          Path Number:   1
                    CURRENT STRUCTURE
                Cartesian Coordinates (Ang):                
 ---------------------------------------------------------------------
 Center     Atomic                     Coordinates (Angstroms)
 Number     Number                        X           Y           Z
 ---------------------------------------------------------------------
      1          8                    0.959339   -0.487710   -0.054124
      2          7                    0.061332    0.483527    0.150236
      3          8                   -1.045548    0.145534   -0.055529
      4          1                    0.516042   -1.287720   -0.347148
 ---------------------------------------------------------------------
   CHANGE IN THE REACTION COORDINATE =    0.05588
   NET REACTION COORDINATE UP TO THIS POINT =    2.07237
  # OF POINTS ALONG THE PATH =  37
  # OF STEPS =   1

 Calculating another point on the path.
 Point Number 38 in FORWARD path direction.
 Using LQA Reaction Path Following.
   LQA: T_Est iteration completed in    2 iterations.
 PES minimum detected within a second-order step.
 Calculation of FORWARD path complete.
 Reaction path calculation complete.
 
 Energies reported relative to the TS energy of          -0.012022
 --------------------------------------------------------------------------
    Summary of reaction path following
 --------------------------------------------------------------------------
                        Energy   Rx Coord
   1                    0.00000   0.00000
   2                   -0.00001   0.05608
   3                   -0.00005   0.11190
   4                   -0.00012   0.16766
   5                   -0.00021   0.22353
   6                   -0.00032   0.27946
   7                   -0.00047   0.33542
   8                   -0.00064   0.39141
   9                   -0.00083   0.44741
  10                   -0.00105   0.50343
  11                   -0.00130   0.55945
  12                   -0.00157   0.61548
  13                   -0.00186   0.67152
  14                   -0.00216   0.72756
  15                   -0.00249   0.78360
  16                   -0.00284   0.83965
  17                   -0.00320   0.89570
  18                   -0.00357   0.95175
  19                   -0.00395   1.00780
  20                   -0.00433   1.06385
  21                   -0.00473   1.11991
  22                   -0.00512   1.17596
  23                   -0.00551   1.23202
  24                   -0.00590   1.28807
  25                   -0.00628   1.34412
  26                   -0.00665   1.40018
  27                   -0.00701   1.45623
  28                   -0.00735   1.51228
  29                   -0.00767   1.56833
  30                   -0.00796   1.62438
  31                   -0.00823   1.68042
  32                   -0.00848   1.73646
  33                   -0.00869   1.79250
  34                   -0.00887   1.84852
  35                   -0.00902   1.90453
  36                   -0.00913   1.96053
  37                   -0.00920   2.01648
  38                   -0.00923   2.07237
 --------------------------------------------------------------------------
 
 Total number of points:                   37
 Total number of gradient calculations:    38
 Total number of Hessian calculations:      1
 IRC-IRC-IRC-IRC-IRC-IRC-IRC-IRC-IRC-IRC-IRC-IRC-IRC-IRC-IRC-IRC-IRC-IRC
 Leave Link  123 at Mon Jan  7 22:22:09 2013, MaxMem=  134217728 cpu:       0.0
 (Enter /Users/talipovmr/usr/local/g09/l202.exe)
                          Input orientation:                          
 ---------------------------------------------------------------------
 Center     Atomic      Atomic             Coordinates (Angstroms)
 Number     Number       Type             X           Y           Z
 ---------------------------------------------------------------------
      1          8           0        0.959339   -0.487710   -0.054124
      2          7           0        0.061332    0.483527    0.150236
      3          8           0       -1.045548    0.145534   -0.055529
      4          1           0        0.516042   -1.287720   -0.347148
 ---------------------------------------------------------------------
                    Distance matrix (angstroms):
                    1          2          3          4
     1  O    0.000000
     2  N    1.338462   0.000000
     3  O    2.102515   1.175483   0.000000
     4  H    0.960413   1.895117   2.139585   0.000000
 Symmetry turned off by external request.
 Stoichiometry    HNO2
 Framework group  C1[X(HNO2)]
 Deg. of freedom     6
 Full point group                 C1      NOp   1
 Rotational constants (GHZ):     86.9223305     13.9089063     11.9903390
 Leave Link  202 at Mon Jan  7 22:22:09 2013, MaxMem=  134217728 cpu:       0.0
 (Enter /Users/talipovmr/usr/local/g09/l601.exe)
 Copying SCF densities to generalized density rwf, IOpCl= 0 IROHF=0.

 **********************************************************************

            Population analysis using the SCF density.

 **********************************************************************

 Alpha  occ. eigenvalues --   -1.43270  -1.31726  -0.85968  -0.73882  -0.65034
 Alpha  occ. eigenvalues --   -0.62239  -0.51963  -0.48702  -0.40917
 Alpha virt. eigenvalues --   -0.00783   0.08810   0.15305   0.23212
          Condensed to atoms (all electrons):
              1          2          3          4
     1  O    6.296542   0.000000   0.000000   0.000000
     2  N    0.000000   4.571613   0.000000   0.000000
     3  O    0.000000   0.000000   6.332309   0.000000
     4  H    0.000000   0.000000   0.000000   0.799535
 Mulliken atomic charges:
              1
     1  O   -0.296542
     2  N    0.428387
     3  O   -0.332309
     4  H    0.200465
 Sum of Mulliken atomic charges =   0.00000
 Mulliken charges with hydrogens summed into heavy atoms:
              1
     1  O   -0.096077
     2  N    0.428387
     3  O   -0.332309
 Sum of Mulliken charges with hydrogens summed into heavy atoms =   0.00000
 APT atomic charges:
              1
     1  O   -0.296542
     2  N    0.428387
     3  O   -0.332309
     4  H    0.200465
 Sum of APT charges=   0.00000
 APT Atomic charges with hydrogens summed into heavy atoms:
              1
     1  O   -0.096077
     2  N    0.428387
     3  O   -0.332309
     4  H    0.000000
 Sum of APT charges=   0.00000
 Charge=              0.0000 electrons
 Dipole moment (field-independent basis, Debye):
    X=              0.2610    Y=             -1.1921    Z=             -0.3520  Tot=              1.2701
 N-N= 6.179455320850D+01 E-N=-6.278148565949D+01  KE=-4.677610159396D+01
  Exact polarizability:   0.000   0.000   0.000   0.000   0.000   0.000
 Approx polarizability:  19.311  -2.333   8.418   0.972   1.789   2.433
 Leave Link  601 at Mon Jan  7 22:22:09 2013, MaxMem=  134217728 cpu:       0.1
 (Enter /Users/talipovmr/usr/local/g09/l716.exe)
 Dipole        = 1.02674326D-01-4.69025699D-01-1.38487619D-01
 Polarizability= 0.00000000D+00 0.00000000D+00 0.00000000D+00
                 0.00000000D+00 0.00000000D+00 0.00000000D+00
 -------------------------------------------------------------------
 Center     Atomic                   Forces (Hartrees/Bohr)
 Number     Number              X              Y              Z
 -------------------------------------------------------------------
      1        8          -0.000306731   -0.000330590   -0.000493836
      2        7          -0.000009523    0.000017814    0.000325905
      3        8           0.000184699   -0.000100613   -0.000208990
      4        1           0.000131555    0.000413390    0.000376922
 -------------------------------------------------------------------
 Cartesian Forces:  Max     0.000493836 RMS     0.000284612
 Leave Link  716 at Mon Jan  7 22:22:09 2013, MaxMem=  134217728 cpu:       0.1
 (Enter /Users/talipovmr/usr/local/g09/l9999.exe)

 This type of calculation cannot be archived.


 BULLDOZER: SOMEONE WHO SLEEPS THROUGH SPEECHES.
 Job cpu time:  0 days  0 hours  1 minutes  9.4 seconds.
 File lengths (MBytes):  RWF=      5 Int=      0 D2E=      0 Chk=      2 Scr=      1
 Normal termination of Gaussian 09 at Mon Jan  7 22:22:09 2013.
