 Entering Gaussian System, Link 0=g09
 Input=51-openshell_s_OH_sts.com
 Output=51-openshell_s_OH_sts.log
 Initial command:
 /group/hpc-share/gaussian/2009B/g09/l1.exe /tmp/g_51-openshell_s_OH_sts.com-281005.hn1.marqnet.mu.edu/Gau-20532.inp -scrdir=/tmp/g_51-openshell_s_OH_sts.com-281005.hn1.marqnet.mu.edu/
 Entering Link 1 = /group/hpc-share/gaussian/2009B/g09/l1.exe PID=     20533.
  
 Copyright (c) 1988,1990,1992,1993,1995,1998,2003,2009,2010,
            Gaussian, Inc.  All Rights Reserved.
  
 This is part of the Gaussian(R) 09 program.  It is based on
 the Gaussian(R) 03 system (copyright 2003, Gaussian, Inc.),
 the Gaussian(R) 98 system (copyright 1998, Gaussian, Inc.),
 the Gaussian(R) 94 system (copyright 1995, Gaussian, Inc.),
 the Gaussian 92(TM) system (copyright 1992, Gaussian, Inc.),
 the Gaussian 90(TM) system (copyright 1990, Gaussian, Inc.),
 the Gaussian 88(TM) system (copyright 1988, Gaussian, Inc.),
 the Gaussian 86(TM) system (copyright 1986, Carnegie Mellon
 University), and the Gaussian 82(TM) system (copyright 1983,
 Carnegie Mellon University). Gaussian is a federally registered
 trademark of Gaussian, Inc.
  
 This software contains proprietary and confidential information,
 including trade secrets, belonging to Gaussian, Inc.
  
 This software is provided under written license and may be
 used, copied, transmitted, or stored only in accord with that
 written license.
  
 The following legend is applicable only to US Government
 contracts under FAR:
  
                    RESTRICTED RIGHTS LEGEND
  
 Use, reproduction and disclosure by the US Government is
 subject to restrictions as set forth in subparagraphs (a)
 and (c) of the Commercial Computer Software - Restricted
 Rights clause in FAR 52.227-19.
  
 Gaussian, Inc.
 340 Quinnipiac St., Bldg. 40, Wallingford CT 06492
  
  
 ---------------------------------------------------------------
 Warning -- This program may not be used in any manner that
 competes with the business of Gaussian, Inc. or will provide
 assistance to any competitor of Gaussian, Inc.  The licensee
 of this program is prohibited from giving any competitor of
 Gaussian, Inc. access to this program.  By using this program,
 the user acknowledges that Gaussian, Inc. is engaged in the
 business of creating and licensing software in the field of
 computational chemistry and represents and warrants to the
 licensee that it is not a competitor of Gaussian, Inc. and that
 it will not use this program in any manner prohibited above.
 ---------------------------------------------------------------
  

 Cite this work as:
 Gaussian 09, Revision B.01,
 M. J. Frisch, G. W. Trucks, H. B. Schlegel, G. E. Scuseria, 
 M. A. Robb, J. R. Cheeseman, G. Scalmani, V. Barone, B. Mennucci, 
 G. A. Petersson, H. Nakatsuji, M. Caricato, X. Li, H. P. Hratchian, 
 A. F. Izmaylov, J. Bloino, G. Zheng, J. L. Sonnenberg, M. Hada, 
 M. Ehara, K. Toyota, R. Fukuda, J. Hasegawa, M. Ishida, T. Nakajima, 
 Y. Honda, O. Kitao, H. Nakai, T. Vreven, J. A. Montgomery, Jr., 
 J. E. Peralta, F. Ogliaro, M. Bearpark, J. J. Heyd, E. Brothers, 
 K. N. Kudin, V. N. Staroverov, T. Keith, R. Kobayashi, J. Normand, 
 K. Raghavachari, A. Rendell, J. C. Burant, S. S. Iyengar, J. Tomasi, 
 M. Cossi, N. Rega, J. M. Millam, M. Klene, J. E. Knox, J. B. Cross, 
 V. Bakken, C. Adamo, J. Jaramillo, R. Gomperts, R. E. Stratmann, 
 O. Yazyev, A. J. Austin, R. Cammi, C. Pomelli, J. W. Ochterski, 
 R. L. Martin, K. Morokuma, V. G. Zakrzewski, G. A. Voth, 
 P. Salvador, J. J. Dannenberg, S. Dapprich, A. D. Daniels, 
 O. Farkas, J. B. Foresman, J. V. Ortiz, J. Cioslowski, 
 and D. J. Fox, Gaussian, Inc., Wallingford CT, 2010.
 
 ******************************************
 Gaussian 09:  EM64L-G09RevB.01 12-Aug-2010
                 6-Jul-2012 
 ******************************************
 %nproc=8
 Will use up to    8 processors via shared memory.
 %chk=51-openshell_s_OH_sts.chk
 %mem=8gb
 ---------------------------------------------------------------------
 #P cbs-qb3 Opt(ts,calcfc,noeigentest) freq guess(read) geom(allcheck)
 ---------------------------------------------------------------------
 1/5=1,10=4,11=1,14=-1,18=20,26=3,29=7,38=1/1,3;
 2/9=110,12=2,40=1/2;
 3/5=4,6=6,7=700,11=2,14=-4,16=1,25=1,30=1,71=2,74=-5,116=-2/1,2,3;
 4/5=1/1;
 5/5=2,38=6/2;
 8/6=4,10=90,11=11/1;
 11/6=1,8=1,9=11,15=111,16=1/1,2,10;
 10/6=1,7=6,13=1/2;
 6/7=2,8=2,9=2,10=2,28=1/1;
 7/10=1,18=20,25=1/1,2,3,16;
 1/5=1,10=4,11=1,14=-1,18=20/3(2);
 2/9=110/2;
 99//99;
 2/9=110/2;
 3/5=4,6=6,7=700,11=2,14=-2,16=1,25=1,30=1,71=1,74=-5/1,2,3;
 4/5=5,16=3/1;
 5/5=2,38=5/2;
 7//1,2,3,16;
 1/5=1,11=1,14=-1,18=20/3(-5);
 2/9=110/2;
 6/7=2,8=2,9=2,10=2,19=2,28=1/1;
 99/9=1/99;
 Leave Link    1 at Fri Jul  6 15:12:33 2012, MaxMem= 1073741824 cpu:       3.7
 (Enter /group/hpc-share/gaussian/2009B/g09/l101.exe)
 -------------------
 51-openshell_s_OH_s
 -------------------
 Redundant internal coordinates taken from checkpoint file:
 51-openshell_s_OH_sts.chk
 Charge =  0 Multiplicity = 1
 C,0,-2.5440345053,-0.8628843886,1.1647060355
 C,0,2.6798812516,-1.321390805,0.149908382
 S,0,-2.1992738409,-0.4383848399,-0.5943696948
 S,0,1.0574275451,-0.7443761926,-0.4393445407
 H,0,-2.8097993364,-1.918478761,1.2364689949
 H,0,-3.3788052349,-0.2735796562,1.5477496199
 H,0,-1.6746293454,-0.6854255023,1.8063155755
 H,0,3.4764468826,-0.7663419055,-0.3473700973
 H,0,2.7249995059,-2.3779444988,-0.1127129077
 H,0,2.7540185893,-1.1889696654,1.229516812
 N,0,1.2198940793,0.8873899175,0.0523751377
 O,0,2.2474073646,1.3063984046,0.5409100723
 H,0,-1.5793508926,1.2149820737,-0.2694756391
 H,0,-1.0770572334,2.755126274,-0.7616598556
 O,0,-0.9532746265,2.1223783861,-0.0430744747
 H,0,0.1263168594,1.628515576,-0.0264019833
 Recover connectivity data from disk.
                    Isotopes and Nuclear Properties:
 (Nuclear quadrupole moments (NQMom) in fm**2, nuclear magnetic moments (NMagM)
  in nuclear magnetons)

  Atom         1           2           3           4           5           6           7           8           9          10
 IAtWgt=          12          12          32          32           1           1           1           1           1           1
 AtmWgt=  12.0000000  12.0000000  31.9720718  31.9720718   1.0078250   1.0078250   1.0078250   1.0078250   1.0078250   1.0078250
 NucSpn=           0           0           0           0           1           1           1           1           1           1
 AtZEff=  -3.6000000  -3.6000000 -13.6000000 -13.6000000  -1.0000000  -1.0000000  -1.0000000  -1.0000000  -1.0000000  -1.0000000
 NQMom=    0.0000000   0.0000000   0.0000000   0.0000000   0.0000000   0.0000000   0.0000000   0.0000000   0.0000000   0.0000000
 NMagM=    0.0000000   0.0000000   0.0000000   0.0000000   2.7928460   2.7928460   2.7928460   2.7928460   2.7928460   2.7928460

  Atom        11          12          13          14          15          16
 IAtWgt=          14          16           1           1          16           1
 AtmWgt=  14.0030740  15.9949146   1.0078250   1.0078250  15.9949146   1.0078250
 NucSpn=           2           0           1           1           0           1
 AtZEff=  -4.5500000  -5.6000000  -1.0000000  -1.0000000  -5.6000000  -1.0000000
 NQMom=    2.0440000   0.0000000   0.0000000   0.0000000   0.0000000   0.0000000
 NMagM=    0.4037610   0.0000000   2.7928460   2.7928460   0.0000000   2.7928460
 Leave Link  101 at Fri Jul  6 15:12:34 2012, MaxMem= 1073741824 cpu:       0.7
 (Enter /group/hpc-share/gaussian/2009B/g09/l103.exe)

 GradGradGradGradGradGradGradGradGradGradGradGradGradGradGradGradGradGrad
 Berny optimization.
 Initialization pass.
                           ----------------------------
                           !    Initial Parameters    !
                           ! (Angstroms and Degrees)  !
 --------------------------                            --------------------------
 ! Name  Definition              Value          Derivative Info.                !
 --------------------------------------------------------------------------------
 ! R1    R(1,3)                  1.8421         calculate D2E/DX2 analytically  !
 ! R2    R(1,5)                  1.0909         calculate D2E/DX2 analytically  !
 ! R3    R(1,6)                  1.0913         calculate D2E/DX2 analytically  !
 ! R4    R(1,7)                  1.095          calculate D2E/DX2 analytically  !
 ! R5    R(2,4)                  1.82           calculate D2E/DX2 analytically  !
 ! R6    R(2,8)                  1.0908         calculate D2E/DX2 analytically  !
 ! R7    R(2,9)                  1.0896         calculate D2E/DX2 analytically  !
 ! R8    R(2,10)                 1.0902         calculate D2E/DX2 analytically  !
 ! R9    R(3,13)                 1.7954         calculate D2E/DX2 analytically  !
 ! R10   R(4,11)                 1.712          calculate D2E/DX2 analytically  !
 ! R11   R(11,12)                1.2124         calculate D2E/DX2 analytically  !
 ! R12   R(11,16)                1.3234         calculate D2E/DX2 analytically  !
 ! R13   R(13,15)                1.1254         calculate D2E/DX2 analytically  !
 ! R14   R(14,15)                0.9654         calculate D2E/DX2 analytically  !
 ! R15   R(15,16)                1.1873         calculate D2E/DX2 analytically  !
 ! A1    A(3,1,5)              109.3535         calculate D2E/DX2 analytically  !
 ! A2    A(3,1,6)              110.7266         calculate D2E/DX2 analytically  !
 ! A3    A(3,1,7)              111.9371         calculate D2E/DX2 analytically  !
 ! A4    A(5,1,6)              108.2459         calculate D2E/DX2 analytically  !
 ! A5    A(5,1,7)              108.1618         calculate D2E/DX2 analytically  !
 ! A6    A(6,1,7)              108.3108         calculate D2E/DX2 analytically  !
 ! A7    A(4,2,8)              110.0023         calculate D2E/DX2 analytically  !
 ! A8    A(4,2,9)              105.4436         calculate D2E/DX2 analytically  !
 ! A9    A(4,2,10)             110.0426         calculate D2E/DX2 analytically  !
 ! A10   A(8,2,9)              110.6879         calculate D2E/DX2 analytically  !
 ! A11   A(8,2,10)             109.8754         calculate D2E/DX2 analytically  !
 ! A12   A(9,2,10)             110.7095         calculate D2E/DX2 analytically  !
 ! A13   A(1,3,13)              95.9713         calculate D2E/DX2 analytically  !
 ! A14   A(2,4,11)              97.1572         calculate D2E/DX2 analytically  !
 ! A15   A(4,11,12)            121.7058         calculate D2E/DX2 analytically  !
 ! A16   A(4,11,16)            115.9931         calculate D2E/DX2 analytically  !
 ! A17   A(12,11,16)           122.0561         calculate D2E/DX2 analytically  !
 ! A18   A(3,13,15)            166.1589         calculate D2E/DX2 analytically  !
 ! A19   A(13,15,14)           107.9009         calculate D2E/DX2 analytically  !
 ! A20   A(13,15,16)            99.979          calculate D2E/DX2 analytically  !
 ! A21   A(14,15,16)           113.5564         calculate D2E/DX2 analytically  !
 ! A22   A(11,16,15)           170.1132         calculate D2E/DX2 analytically  !
 ! D1    D(5,1,3,13)          -171.8191         calculate D2E/DX2 analytically  !
 ! D2    D(6,1,3,13)            68.9899         calculate D2E/DX2 analytically  !
 ! D3    D(7,1,3,13)           -51.9763         calculate D2E/DX2 analytically  !
 ! D4    D(8,2,4,11)           -60.0142         calculate D2E/DX2 analytically  !
 ! D5    D(9,2,4,11)          -179.3944         calculate D2E/DX2 analytically  !
 ! D6    D(10,2,4,11)           61.1788         calculate D2E/DX2 analytically  !
 ! D7    D(1,3,13,15)           89.2296         calculate D2E/DX2 analytically  !
 ! D8    D(2,4,11,12)            4.2172         calculate D2E/DX2 analytically  !
 ! D9    D(2,4,11,16)         -170.2068         calculate D2E/DX2 analytically  !
 ! D10   D(4,11,16,15)          35.5206         calculate D2E/DX2 analytically  !
 ! D11   D(12,11,16,15)       -138.882          calculate D2E/DX2 analytically  !
 ! D12   D(3,13,15,14)         123.6507         calculate D2E/DX2 analytically  !
 ! D13   D(3,13,15,16)           4.7517         calculate D2E/DX2 analytically  !
 ! D14   D(13,15,16,11)        -27.0775         calculate D2E/DX2 analytically  !
 ! D15   D(14,15,16,11)       -141.7339         calculate D2E/DX2 analytically  !
 --------------------------------------------------------------------------------
 Trust Radius=3.00D-01 FncErr=1.00D-07 GrdErr=1.00D-06
 Number of steps in this run=     62 maximum allowed number of steps=    100.
 Search for a saddle point of order  1.
 GradGradGradGradGradGradGradGradGradGradGradGradGradGradGradGradGradGrad

 Leave Link  103 at Fri Jul  6 15:12:35 2012, MaxMem= 1073741824 cpu:       0.2
 (Enter /group/hpc-share/gaussian/2009B/g09/l202.exe)
                          Input orientation:                          
 ---------------------------------------------------------------------
 Center     Atomic      Atomic             Coordinates (Angstroms)
 Number     Number       Type             X           Y           Z
 ---------------------------------------------------------------------
      1          6           0       -2.544035   -0.862884    1.164706
      2          6           0        2.679881   -1.321391    0.149908
      3         16           0       -2.199274   -0.438385   -0.594370
      4         16           0        1.057428   -0.744376   -0.439345
      5          1           0       -2.809799   -1.918479    1.236469
      6          1           0       -3.378805   -0.273580    1.547750
      7          1           0       -1.674629   -0.685426    1.806316
      8          1           0        3.476447   -0.766342   -0.347370
      9          1           0        2.725000   -2.377944   -0.112713
     10          1           0        2.754019   -1.188970    1.229517
     11          7           0        1.219894    0.887390    0.052375
     12          8           0        2.247407    1.306398    0.540910
     13          1           0       -1.579351    1.214982   -0.269476
     14          1           0       -1.077057    2.755126   -0.761660
     15          8           0       -0.953275    2.122378   -0.043074
     16          1           0        0.126317    1.628516   -0.026402
 ---------------------------------------------------------------------
                    Distance matrix (angstroms):
                    1          2          3          4          5
     1  C    0.000000
     2  C    5.341286   0.000000
     3  S    1.842120   5.013961   0.000000
     4  S    3.944306   1.820033   3.274716   0.000000
     5  H    1.090899   5.627941   2.432157   4.375193   0.000000
     6  H    1.091258   6.305517   2.450945   4.883682   1.768151
     7  H    1.094998   4.702116   2.469731   3.537033   1.770242
     8  H    6.208212   1.090817   5.690551   2.420867   6.584289
     9  H    5.629381   1.089638   5.314353   2.357123   5.715365
    10  H    5.308474   1.090223   5.331514   2.420988   5.611444
    11  N    4.297429   2.649488   3.723797   1.711971   5.051080
    12  O    5.296492   2.691689   4.909797   2.565663   6.038127
    13  H    2.702780   4.974950   1.795406   3.289459   3.687879
    14  H    4.353494   5.618143   3.389081   4.111743   5.370056
    15  O    3.591802   5.009652   2.900681   3.523952   4.627358
    16  H    3.841431   3.905602   3.162758   2.582267   4.774598
                    6          7          8          9         10
     6  H    0.000000
     7  H    1.772199   0.000000
     8  H    7.129430   5.583771   0.000000
     9  H    6.666477   5.089600   1.793600   0.000000
    10  H    6.208924   4.494349   1.785242   1.793344   0.000000
    11  N    4.973131   3.732067   2.826067   3.599306   2.837335
    12  O    5.929951   4.577225   2.568235   3.772227   2.637744
    13  H    2.959081   2.815943   5.430728   5.609022   5.177263
    14  H    4.450222   4.334626   5.771202   6.420684   5.847890
    15  O    3.762251   3.438657   5.297144   5.812698   5.131134
    16  H    4.287400   3.457829   4.130585   4.776225   4.052206
                   11         12         13         14         15
    11  N    0.000000
    12  O    1.212443   0.000000
    13  H    2.836667   3.912692   0.000000
    14  H    3.070355   3.853254   1.693100   0.000000
    15  O    2.501393   3.354285   1.125432   0.965431   0.000000
    16  H    1.323399   2.219150   1.771834   1.804983   1.187306
                   16
    16  H    0.000000
 Stoichiometry    C2H9NO2S2
 Framework group  C1[X(C2H9NO2S2)]
 Deg. of freedom    42
 Full point group                 C1      NOp   1
 Largest Abelian subgroup         C1      NOp   1
 Largest concise Abelian subgroup C1      NOp   1
                         Standard orientation:                         
 ---------------------------------------------------------------------
 Center     Atomic      Atomic             Coordinates (Angstroms)
 Number     Number       Type             X           Y           Z
 ---------------------------------------------------------------------
      1          6           0       -2.544035   -0.862884    1.164706
      2          6           0        2.679881   -1.321391    0.149908
      3         16           0       -2.199274   -0.438385   -0.594370
      4         16           0        1.057428   -0.744376   -0.439345
      5          1           0       -2.809799   -1.918479    1.236469
      6          1           0       -3.378805   -0.273580    1.547750
      7          1           0       -1.674629   -0.685426    1.806316
      8          1           0        3.476447   -0.766342   -0.347370
      9          1           0        2.725000   -2.377944   -0.112713
     10          1           0        2.754019   -1.188970    1.229517
     11          7           0        1.219894    0.887390    0.052375
     12          8           0        2.247407    1.306398    0.540910
     13          1           0       -1.579351    1.214982   -0.269476
     14          1           0       -1.077057    2.755126   -0.761660
     15          8           0       -0.953275    2.122378   -0.043074
     16          1           0        0.126317    1.628516   -0.026402
 ---------------------------------------------------------------------
 Rotational constants (GHZ):      2.1445990      0.8838654      0.7097061
 Leave Link  202 at Fri Jul  6 15:12:36 2012, MaxMem= 1073741824 cpu:       0.3
 (Enter /group/hpc-share/gaussian/2009B/g09/l301.exe)
 Standard basis: 6-311G(2d,d,p) (5D, 7F)
 Ernie: Thresh=  0.10000D-02 Tol=  0.10000D-05 Strict=F.
 There are   206 symmetry adapted basis functions of A   symmetry.
 Integral buffers will be    131072 words long.
 Raffenetti 2 integral format.
 Two-electron integral symmetry is turned on.
   206 basis functions,   336 primitive gaussians,   215 cartesian basis functions
    38 alpha electrons       38 beta electrons
       nuclear repulsion energy       463.4087353453 Hartrees.
 IExCor=  402 DFT=T Ex+Corr=B3LYP ExCW=0 ScaHFX=  0.200000
 ScaDFX=  0.800000  0.720000  1.000000  0.810000 ScalE2=  1.000000  1.000000
 IRadAn=      0 IRanWt=     -1 IRanGd=            0 ICorTp=0
 NAtoms=   16 NActive=   16 NUniq=   16 SFac= 1.00D+00 NAtFMM=   50 NAOKFM=F Big=F
 Leave Link  301 at Fri Jul  6 15:12:40 2012, MaxMem= 1073741824 cpu:      15.8
 (Enter /group/hpc-share/gaussian/2009B/g09/l302.exe)
 NPDir=0 NMtPBC=     1 NCelOv=     1 NCel=       1 NClECP=     1 NCelD=      1
         NCelK=      1 NCelE2=     1 NClLst=     1 CellRange=     0.0.
 One-electron integrals computed using PRISM.
 NBasis=   206 RedAO= T  NBF=   206
 NBsUse=   206 1.00D-06 NBFU=   206
 Precomputing XC quadrature grid using
 IXCGrd= 2 IRadAn=           0 IRanWt=          -1 IRanGd=           0 AccXCQ= 0.00D+00.
 NRdTot=    1016 NPtTot=      129054 NUsed=      136387 NTot=      136419
 NSgBfM=   215   215   215   215   215 NAtAll=    16    16.
 Leave Link  302 at Fri Jul  6 15:12:50 2012, MaxMem= 1073741824 cpu:      16.5
 (Enter /group/hpc-share/gaussian/2009B/g09/l303.exe)
 DipDrv:  MaxL=1.
 Leave Link  303 at Fri Jul  6 15:12:54 2012, MaxMem= 1073741824 cpu:       8.1
 (Enter /group/hpc-share/gaussian/2009B/g09/l401.exe)
 Initial guess read from the checkpoint file:  51-openshell_s_OH_sts.chk
 B after Tr=     0.000000    0.000000    0.000000
         Rot=    1.000000    0.000000    0.000000    0.000000 Ang=   0.00 deg.
 Guess basis will be translated and rotated to current coordinates.
 Initial guess orbital symmetries:
       Occupied  (A) (A) (A) (A) (A) (A) (A) (A) (A) (A) (A) (A)
                 (A) (A) (A) (A) (A) (A) (A) (A) (A) (A) (A) (A)
                 (A) (A) (A) (A) (A) (A) (A) (A) (A) (A) (A) (A)
                 (A) (A)
       Virtual   (A) (A) (A) (A) (A) (A) (A) (A) (A) (A) (A) (A)
                 (A) (A) (A) (A) (A) (A) (A) (A) (A) (A) (A) (A)
                 (A) (A) (A) (A) (A) (A) (A) (A) (A) (A) (A) (A)
                 (A) (A) (A) (A) (A) (A) (A) (A) (A) (A) (A) (A)
                 (A) (A) (A) (A) (A) (A) (A) (A) (A) (A) (A) (A)
                 (A) (A) (A) (A) (A) (A) (A) (A) (A) (A) (A) (A)
                 (A) (A) (A) (A) (A) (A) (A) (A) (A) (A) (A) (A)
                 (A) (A) (A) (A) (A) (A) (A) (A) (A) (A) (A) (A)
                 (A) (A) (A) (A) (A) (A) (A) (A) (A) (A) (A) (A)
                 (A) (A) (A) (A) (A) (A) (A) (A) (A) (A) (A) (A)
                 (A) (A) (A) (A) (A) (A) (A) (A) (A) (A) (A) (A)
                 (A) (A) (A) (A) (A) (A) (A) (A) (A) (A) (A) (A)
                 (A) (A) (A) (A) (A) (A) (A) (A) (A) (A) (A) (A)
                 (A) (A) (A) (A) (A) (A) (A) (A) (A) (A) (A) (A)
 The electronic state of the initial guess is 1-A.
 Leave Link  401 at Fri Jul  6 15:12:59 2012, MaxMem= 1073741824 cpu:      17.2
 (Enter /group/hpc-share/gaussian/2009B/g09/l502.exe)
 Closed shell SCF:
 Requested convergence on RMS density matrix=1.00D-08 within 128 cycles.
 Requested convergence on MAX density matrix=1.00D-06.
 Requested convergence on             energy=1.00D-06.
 No special actions if energy rises.
 Using DIIS extrapolation, IDIIS=  1040.
 Integral symmetry usage will be decided dynamically.
       136230 words used for storage of precomputed grid.
 Keep R1 ints in memory in canonical form, NReq=274930950.
 IEnd=      296386 IEndB=      296386 NGot=  1073741824 MDV=   803912681
 LenX=   803912681 LenY=   803866015
 Symmetry not used in FoFDir.
 MinBra= 0 MaxBra= 2 Meth= 1.
 IRaf=       0 NMat=   1 IRICut=       1 DoRegI=T DoRafI=F ISym2E= 0 JSym2E=0.

 Cycle   1  Pass 1  IDiag  1:
 E= -1083.23114882808    
 DIIS: error= 4.49D-09 at cycle   1 NSaved=   1.
 NSaved= 1 IEnMin= 1 EnMin= -1083.23114882808     IErMin= 1 ErrMin= 4.49D-09
 ErrMax= 4.49D-09 EMaxC= 1.00D-01 BMatC= 9.39D-15 BMatP= 9.39D-15
 IDIUse=1 WtCom= 1.00D+00 WtEn= 0.00D+00
 Coeff-Com:  0.100D+01
 Coeff:      0.100D+01
 Gap=     0.047 Goal=   None    Shift=    0.000
 RMSDP=1.22D-09 MaxDP=3.13D-08              OVMax= 1.17D-07

 SCF Done:  E(RB3LYP) =  -1083.23114883     A.U. after    1 cycles
             Convg  =    0.1225D-08             -V/T =  2.0019
 KE= 1.081155162366D+03 PE=-3.493837418848D+03 EE= 8.660423723078D+02
 Leave Link  502 at Fri Jul  6 15:13:12 2012, MaxMem= 1073741824 cpu:      36.1
 (Enter /group/hpc-share/gaussian/2009B/g09/l801.exe)
 Range of M.O.s used for correlation:     1   206
 NBasis=   206 NAE=    38 NBE=    38 NFC=     0 NFV=     0
 NROrb=    206 NOA=    38 NOB=    38 NVA=   168 NVB=   168

 **** Warning!!: The smallest alpha delta epsilon is  0.46918591D-01

 Leave Link  801 at Fri Jul  6 15:13:16 2012, MaxMem= 1073741824 cpu:       0.2
 (Enter /group/hpc-share/gaussian/2009B/g09/l1101.exe)
 Using compressed storage, NAtomX=    16.
 Will process  17 centers per pass.
 Leave Link 1101 at Fri Jul  6 15:13:20 2012, MaxMem= 1073741824 cpu:       3.9
 (Enter /group/hpc-share/gaussian/2009B/g09/l1102.exe)
 Symmetrizing basis deriv contribution to polar:
 IMax=3 JMax=2 DiffMx= 0.00D+00
 Leave Link 1102 at Fri Jul  6 15:13:27 2012, MaxMem= 1073741824 cpu:      29.6
 (Enter /group/hpc-share/gaussian/2009B/g09/l1110.exe)
 Forming Gx(P) for the SCF density, NAtomX=    16.
 Integral derivatives from FoFDir/FoFCou, PRISM(SPDF).
 Do as many integral derivatives as possible in FoFDir.
 G2DrvN: MDV=    1073741592.
 G2DrvN: will do    17 centers at a time, making    1 passes doing MaxLOS=2.
 Calling FoFCou, ICntrl=  3107 FMM=F I1Cent=   0 AccDes= 0.00D+00.
 FoFCou: FMM=F IPFlag=           0 FMFlag=      100000 FMFlg1=           0
         NFxFlg=           0 DoJE=F BraDBF=F KetDBF=F FulRan=T
         Omega=  0.000000  0.000000  1.000000  0.000000  0.000000 ICntrl=    3107 IOpCl=  0
         NMat0=    1 NMatS0=    1 NMatT0=    0 NMatD0=    1 NMtDS0=    0 NMtDT0=    0
         I1Cent=           0 NGrid=           0.
 Symmetry not used in FoFCou.
 FoFDir/FoFCou used for L=0 through L=2.
 End of G2Drv Frequency-dependent properties file   721 does not exist.
 End of G2Drv Frequency-dependent properties file   722 does not exist.
 Leave Link 1110 at Fri Jul  6 15:13:57 2012, MaxMem= 1073741824 cpu:     201.3
 (Enter /group/hpc-share/gaussian/2009B/g09/l1002.exe)
 Minotr:  Closed shell wavefunction.
          IDoAtm=1111111111111111
          Direct CPHF calculation.
          Differentiating once with respect to nuclear coordinates.
          Requested convergence is 1.0D-06 RMS, and 1.0D-05 maximum.
          Secondary convergence is 1.0D-12 RMS, and 1.0D-12 maximum.
          NewPWx=T KeepS1=F KeepF1=F KeepIn=T MapXYZ=F SortEE=F KeepMc=T.
          MDV=    1073741660 using IRadAn=       2.
 Generate precomputed XC quadrature information.
          Keep R1 ints in memory in canonical form, NReq=270420869.
 Symmetry not used in FoFDir.
 MinBra= 0 MaxBra= 2 Meth= 1.
 IRaf=       0 NMat=   1 IRICut=       1 DoRegI=T DoRafI=F ISym2E= 0 JSym2E=0.
          Solving linear equations simultaneously, MaxMat=       0.
          There are    51 degrees of freedom in the 1st order CPHF.  IDoFFX=5.
     45 vectors produced by pass  0 Test12= 1.25D-10 1.96D-07 XBig12= 1.64D-01 1.96D-01.
 AX will form    45 AO Fock derivatives at one time.
     45 vectors produced by pass  1 Test12= 1.25D-10 1.96D-07 XBig12= 7.36D-02 7.32D-02.
     45 vectors produced by pass  2 Test12= 1.25D-10 1.96D-07 XBig12= 1.01D-03 7.35D-03.
     45 vectors produced by pass  3 Test12= 1.25D-10 1.96D-07 XBig12= 3.07D-06 2.76D-04.
     35 vectors produced by pass  4 Test12= 1.25D-10 1.96D-07 XBig12= 5.17D-09 1.28D-05.
      2 vectors produced by pass  5 Test12= 1.25D-10 1.96D-07 XBig12= 8.04D-12 3.47D-07.
 Inverted reduced A of dimension   217 with in-core refinement.
 End of Minotr Frequency-dependent properties file   721 does not exist.
 End of Minotr Frequency-dependent properties file   722 does not exist.
 Leave Link 1002 at Fri Jul  6 15:14:32 2012, MaxMem= 1073741824 cpu:     225.5
 (Enter /group/hpc-share/gaussian/2009B/g09/l601.exe)
 Copying SCF densities to generalized density rwf, IOpCl= 0 IROHF=0.

 **********************************************************************

            Population analysis using the SCF density.

 **********************************************************************

 Orbital symmetries:
       Occupied  (A) (A) (A) (A) (A) (A) (A) (A) (A) (A) (A) (A)
                 (A) (A) (A) (A) (A) (A) (A) (A) (A) (A) (A) (A)
                 (A) (A) (A) (A) (A) (A) (A) (A) (A) (A) (A) (A)
                 (A) (A)
       Virtual   (A) (A) (A) (A) (A) (A) (A) (A) (A) (A) (A) (A)
                 (A) (A) (A) (A) (A) (A) (A) (A) (A) (A) (A) (A)
                 (A) (A) (A) (A) (A) (A) (A) (A) (A) (A) (A) (A)
                 (A) (A) (A) (A) (A) (A) (A) (A) (A) (A) (A) (A)
                 (A) (A) (A) (A) (A) (A) (A) (A) (A) (A) (A) (A)
                 (A) (A) (A) (A) (A) (A) (A) (A) (A) (A) (A) (A)
                 (A) (A) (A) (A) (A) (A) (A) (A) (A) (A) (A) (A)
                 (A) (A) (A) (A) (A) (A) (A) (A) (A) (A) (A) (A)
                 (A) (A) (A) (A) (A) (A) (A) (A) (A) (A) (A) (A)
                 (A) (A) (A) (A) (A) (A) (A) (A) (A) (A) (A) (A)
                 (A) (A) (A) (A) (A) (A) (A) (A) (A) (A) (A) (A)
                 (A) (A) (A) (A) (A) (A) (A) (A) (A) (A) (A) (A)
                 (A) (A) (A) (A) (A) (A) (A) (A) (A) (A) (A) (A)
                 (A) (A) (A) (A) (A) (A) (A) (A) (A) (A) (A) (A)
 The electronic state is 1-A.
 Alpha  occ. eigenvalues --  -88.93412 -88.76793 -19.21197 -19.15987 -14.49117
 Alpha  occ. eigenvalues --  -10.23134 -10.16066  -8.01707  -7.85387  -5.98109
 Alpha  occ. eigenvalues --   -5.97591  -5.97251  -5.81784  -5.81164  -5.81051
 Alpha  occ. eigenvalues --   -1.20499  -1.04861  -0.88015  -0.76837  -0.71680
 Alpha  occ. eigenvalues --   -0.65158  -0.59049  -0.57603  -0.54291  -0.52943
 Alpha  occ. eigenvalues --   -0.51402  -0.47110  -0.46125  -0.44400  -0.39979
 Alpha  occ. eigenvalues --   -0.39247  -0.38938  -0.38254  -0.31033  -0.30906
 Alpha  occ. eigenvalues --   -0.29292  -0.20587  -0.18276
 Alpha virt. eigenvalues --   -0.13584  -0.04049   0.01448   0.02963   0.05221
 Alpha virt. eigenvalues --    0.05602   0.07530   0.08203   0.10001   0.12369
 Alpha virt. eigenvalues --    0.12852   0.15200   0.16322   0.18474   0.19487
 Alpha virt. eigenvalues --    0.20120   0.21690   0.23128   0.25252   0.26137
 Alpha virt. eigenvalues --    0.27243   0.27661   0.30061   0.30635   0.33439
 Alpha virt. eigenvalues --    0.35149   0.37042   0.38430   0.40696   0.42640
 Alpha virt. eigenvalues --    0.43495   0.45228   0.47219   0.48123   0.53496
 Alpha virt. eigenvalues --    0.53877   0.54215   0.54716   0.55965   0.58555
 Alpha virt. eigenvalues --    0.58981   0.60988   0.61129   0.62206   0.63701
 Alpha virt. eigenvalues --    0.66750   0.70004   0.72018   0.74992   0.75549
 Alpha virt. eigenvalues --    0.77247   0.79965   0.81264   0.85198   0.86952
 Alpha virt. eigenvalues --    0.89618   0.95073   0.97653   1.05864   1.06485
 Alpha virt. eigenvalues --    1.07274   1.12996   1.13403   1.21591   1.22462
 Alpha virt. eigenvalues --    1.31845   1.38507   1.39975   1.44579   1.45435
 Alpha virt. eigenvalues --    1.47599   1.49266   1.50519   1.52891   1.53550
 Alpha virt. eigenvalues --    1.54826   1.56645   1.57358   1.59732   1.60962
 Alpha virt. eigenvalues --    1.62832   1.65869   1.70088   1.72950   1.75321
 Alpha virt. eigenvalues --    1.78533   1.80708   1.81831   1.85074   1.89110
 Alpha virt. eigenvalues --    1.90054   1.94378   1.95929   2.00523   2.02369
 Alpha virt. eigenvalues --    2.08205   2.09916   2.12051   2.16997   2.19040
 Alpha virt. eigenvalues --    2.19325   2.20058   2.21772   2.23630   2.26602
 Alpha virt. eigenvalues --    2.30018   2.31610   2.32966   2.34735   2.35010
 Alpha virt. eigenvalues --    2.36460   2.39607   2.42075   2.43835   2.44536
 Alpha virt. eigenvalues --    2.46567   2.48322   2.48502   2.51325   2.52205
 Alpha virt. eigenvalues --    2.53722   2.54795   2.56870   2.63584   2.64561
 Alpha virt. eigenvalues --    2.70625   2.78392   2.82743   2.89202   2.98401
 Alpha virt. eigenvalues --    3.07772   3.12183   3.15502   3.17793   3.20976
 Alpha virt. eigenvalues --    3.30674   3.43766   3.46935   3.63967   3.66155
 Alpha virt. eigenvalues --    3.69052   3.71776   3.73848   3.76924   3.77242
 Alpha virt. eigenvalues --    4.04902   4.31341   4.77805   4.87646   4.93810
 Alpha virt. eigenvalues --    5.37783   5.52839   5.75707   7.66695   7.86593
 Alpha virt. eigenvalues --   17.16892  17.32879  17.40636  17.43772  17.44407
 Alpha virt. eigenvalues --   17.52792  23.83717  23.90150  35.26218  49.79681
 Alpha virt. eigenvalues --   49.83370 188.77595 189.01682
          Condensed to atoms (all electrons):
              1          2          3          4          5          6
     1  C    4.862569  -0.000028   0.262386  -0.004658   0.397585   0.397493
     2  C   -0.000028   4.959035   0.007675   0.197567  -0.000002   0.000017
     3  S    0.262386   0.007675  16.470787  -0.001216  -0.061379  -0.067228
     4  S   -0.004658   0.197567  -0.001216  15.663397  -0.000271   0.001360
     5  H    0.397585  -0.000002  -0.061379  -0.000271   0.628939  -0.039427
     6  H    0.397493   0.000017  -0.067228   0.001360  -0.039427   0.639157
     7  H    0.382893  -0.000628  -0.077864  -0.005469  -0.041279  -0.048778
     8  H   -0.000004   0.383571  -0.000310  -0.042337   0.000000   0.000000
     9  H   -0.000005   0.396871   0.000468  -0.037160   0.000000   0.000001
    10  H    0.000019   0.384802  -0.000597  -0.042007  -0.000006  -0.000005
    11  N   -0.000088  -0.023533  -0.014385   0.196656  -0.000036  -0.000092
    12  O    0.000001   0.006735   0.001245  -0.092595   0.000000   0.000004
    13  H   -0.007963   0.000030   0.166197  -0.003331   0.001432  -0.002333
    14  H   -0.000110   0.000029   0.017625  -0.000246   0.000059  -0.000111
    15  O    0.001688  -0.000094  -0.120734   0.008872  -0.000439   0.001078
    16  H    0.000174   0.001019   0.014174  -0.017046   0.000145  -0.000181
              7          8          9         10         11         12
     1  C    0.382893  -0.000004  -0.000005   0.000019  -0.000088   0.000001
     2  C   -0.000628   0.383571   0.396871   0.384802  -0.023533   0.006735
     3  S   -0.077864  -0.000310   0.000468  -0.000597  -0.014385   0.001245
     4  S   -0.005469  -0.042337  -0.037160  -0.042007   0.196656  -0.092595
     5  H   -0.041279   0.000000   0.000000  -0.000006  -0.000036   0.000000
     6  H   -0.048778   0.000000   0.000001  -0.000005  -0.000092   0.000004
     7  H    0.695734   0.000018  -0.000044   0.000300   0.002730  -0.000185
     8  H    0.000018   0.548344  -0.016699  -0.034527  -0.007248   0.015769
     9  H   -0.000044  -0.016699   0.522011  -0.017112   0.002314   0.000804
    10  H    0.000300  -0.034527  -0.017112   0.547302  -0.005952   0.013208
    11  N    0.002730  -0.007248   0.002314  -0.005952   6.632078   0.212910
    12  O   -0.000185   0.015769   0.000804   0.013208   0.212910   8.048235
    13  H   -0.000194   0.000013  -0.000006   0.000029   0.010208  -0.000496
    14  H   -0.000318   0.000004   0.000000   0.000001   0.007169  -0.000427
    15  O    0.002784  -0.000015   0.000004  -0.000021  -0.088520   0.003339
    16  H   -0.000343  -0.000182  -0.000013   0.000107   0.115948  -0.008973
             13         14         15         16
     1  C   -0.007963  -0.000110   0.001688   0.000174
     2  C    0.000030   0.000029  -0.000094   0.001019
     3  S    0.166197   0.017625  -0.120734   0.014174
     4  S   -0.003331  -0.000246   0.008872  -0.017046
     5  H    0.001432   0.000059  -0.000439   0.000145
     6  H   -0.002333  -0.000111   0.001078  -0.000181
     7  H   -0.000194  -0.000318   0.002784  -0.000343
     8  H    0.000013   0.000004  -0.000015  -0.000182
     9  H   -0.000006   0.000000   0.000004  -0.000013
    10  H    0.000029   0.000001  -0.000021   0.000107
    11  N    0.010208   0.007169  -0.088520   0.115948
    12  O   -0.000496  -0.000427   0.003339  -0.008973
    13  H    0.383752  -0.012651   0.165458  -0.023226
    14  H   -0.012651   0.429496   0.300357  -0.014232
    15  O    0.165458   0.300357   7.979532   0.222585
    16  H   -0.023226  -0.014232   0.222585   0.348490
 Mulliken atomic charges:
              1
     1  C   -0.291954
     2  C   -0.313067
     3  S   -0.596843
     4  S    0.178484
     5  H    0.114681
     6  H    0.119044
     7  H    0.090642
     8  H    0.153604
     9  H    0.148569
    10  H    0.154459
    11  N   -0.040158
    12  O   -0.199575
    13  H    0.323082
    14  H    0.273355
    15  O   -0.475875
    16  H    0.361555
 Sum of Mulliken atomic charges =   0.00000
 Mulliken charges with hydrogens summed into heavy atoms:
              1
     1  C    0.032412
     2  C    0.143564
     3  S   -0.596843
     4  S    0.178484
    11  N   -0.040158
    12  O   -0.199575
    15  O    0.482116
 Sum of Mulliken charges with hydrogens summed into heavy atoms =   0.00000
 APT atomic charges:
              1
     1  C   -1.095145
     2  C   -1.152139
     3  S   -0.526743
     4  S    0.129945
     5  H    0.502548
     6  H    0.550223
     7  H    0.033081
     8  H    0.484001
     9  H    0.538970
    10  H    0.310217
    11  N   -0.280124
    12  O    0.105829
    13  H    0.188191
    14  H    0.714065
    15  O   -0.718360
    16  H    0.215442
 Sum of APT charges=   0.00000
 APT Atomic charges with hydrogens summed into heavy atoms:
              1
     1  C   -0.009293
     2  C    0.181049
     3  S   -0.526743
     4  S    0.129945
     5  H    0.000000
     6  H    0.000000
     7  H    0.000000
     8  H    0.000000
     9  H    0.000000
    10  H    0.000000
    11  N   -0.280124
    12  O    0.105829
    13  H    0.000000
    14  H    0.000000
    15  O    0.399337
    16  H    0.000000
 Sum of APT charges=   0.00000
 Electronic spatial extent (au):  <R**2>=           1641.8091
 Charge=              0.0000 electrons
 Dipole moment (field-independent basis, Debye):
    X=              5.3411    Y=              0.6143    Z=              0.3458  Tot=              5.3874
 Quadrupole moment (field-independent basis, Debye-Ang):
   XX=            -65.6188   YY=            -52.4166   ZZ=            -59.7524
   XY=             -9.4741   XZ=             -4.9848   YZ=             -6.6098
 Traceless Quadrupole moment (field-independent basis, Debye-Ang):
   XX=             -6.3562   YY=              6.8460   ZZ=             -0.4898
   XY=             -9.4741   XZ=             -4.9848   YZ=             -6.6098
 Octapole moment (field-independent basis, Debye-Ang**2):
  XXX=             55.6805  YYY=             24.8316  ZZZ=              3.7863  XYY=              5.7238
  XXY=             -4.2749  XXZ=             11.6170  XZZ=             10.2609  YZZ=              9.7894
  YYZ=            -11.6640  XYZ=              6.0116
 Hexadecapole moment (field-independent basis, Debye-Ang**3):
 XXXX=          -1516.1255 YYYY=           -448.0457 ZZZZ=           -215.0430 XXXY=            -52.3526
 XXXZ=            -58.1753 YYYX=            -42.2528 YYYZ=            -36.3579 ZZZX=              6.3354
 ZZZY=             -4.1506 XXYY=           -317.4404 XXZZ=           -288.1701 YYZZ=           -117.1305
 XXYZ=            -18.8962 YYXZ=              3.9014 ZZXY=            -10.7546
 N-N= 4.634087353453D+02 E-N=-3.493837419575D+03  KE= 1.081155162366D+03
  Exact polarizability:   0.000   0.000   0.000   0.000   0.000   0.000
 Approx polarizability: 324.339  66.212 200.432  41.584  29.211 120.050
 No NMR shielding tensors so no spin-rotation constants.
 Leave Link  601 at Fri Jul  6 15:14:42 2012, MaxMem= 1073741824 cpu:      27.1
 (Enter /group/hpc-share/gaussian/2009B/g09/l701.exe)
 Compute integral second derivatives.
 ... and contract with generalized density number  0.
 Leave Link  701 at Fri Jul  6 15:14:50 2012, MaxMem= 1073741824 cpu:       6.2
 (Enter /group/hpc-share/gaussian/2009B/g09/l702.exe)
 L702 exits ... SP integral derivatives will be done elsewhere.
 Leave Link  702 at Fri Jul  6 15:14:51 2012, MaxMem= 1073741824 cpu:       0.3
 (Enter /group/hpc-share/gaussian/2009B/g09/l703.exe)
 Compute integral second derivatives, UseDBF=F ICtDFT=           0.
 Integral derivatives from FoFDir, PRISM(SPDF).
 Calling FoFJK, ICntrl=    100147 FMM=F ISym2X=0 I1Cent= 0 IOpClX= 0 NMat=1 NMatS=1 NMatT=0.
 FoFCou: FMM=F IPFlag=           0 FMFlag=      100000 FMFlg1=         800
         NFxFlg=           0 DoJE=F BraDBF=F KetDBF=F FulRan=T
         Omega=  0.000000  0.000000  1.000000  0.000000  0.000000 ICntrl=  100147 IOpCl=  0
         NMat0=    1 NMatS0=    1 NMatT0=    0 NMatD0=    1 NMtDS0=    0 NMtDT0=    0
         I1Cent=           0 NGrid=           0.
 Symmetry not used in FoFCou.
 Leave Link  703 at Fri Jul  6 15:15:25 2012, MaxMem= 1073741824 cpu:     241.0
 (Enter /group/hpc-share/gaussian/2009B/g09/l716.exe)
 Dipole        = 2.10133181D+00 2.41665247D-01 1.36045092D-01
 Polarizability= 0.00000000D+00 0.00000000D+00 0.00000000D+00
                 0.00000000D+00 0.00000000D+00 0.00000000D+00
 ***** Axes restored to original set *****
 -------------------------------------------------------------------
 Center     Atomic                   Forces (Hartrees/Bohr)
 Number     Number              X              Y              Z
 -------------------------------------------------------------------
      1        6           0.000300831   -0.000109860    0.000363387
      2        6           0.000847977   -0.000867060   -0.001437563
      3       16           0.002006924    0.006282655    0.002419349
      4       16           0.002280643   -0.003570458    0.000632634
      5        1          -0.000042926   -0.000191499   -0.000360895
      6        1          -0.000158154    0.000288365   -0.000207093
      7        1          -0.000376671    0.000008954   -0.000939820
      8        1          -0.000225336   -0.000472124    0.000309697
      9        1           0.000523944   -0.000247143    0.000223069
     10        1           0.000128335   -0.000013335   -0.000067845
     11        7           0.004778134    0.001318748    0.001897409
     12        8          -0.000992464   -0.001465666   -0.000346171
     13        1          -0.003826518   -0.008564850   -0.001635678
     14        1           0.001407087   -0.000016542   -0.000278018
     15        8           0.012646854   -0.002292249    0.002510120
     16        1          -0.019298659    0.009912063   -0.003082581
 -------------------------------------------------------------------
 Cartesian Forces:  Max     0.019298659 RMS     0.004206736
 Leave Link  716 at Fri Jul  6 15:15:31 2012, MaxMem= 1073741824 cpu:      15.8
 (Enter /group/hpc-share/gaussian/2009B/g09/l103.exe)

 GradGradGradGradGradGradGradGradGradGradGradGradGradGradGradGradGradGrad
 Berny optimization.
 Red2BG is reusing G-inverse.
 Internal  Forces:  Max     0.012804977 RMS     0.002990669
 Search for a saddle point.
 Step number   1 out of a maximum of   62
 All quantities printed in internal units (Hartrees-Bohrs-Radians)
 Swaping is turned off.
 Second derivative matrix not updated -- analytic derivatives used.
 ITU=  0
     Eigenvalues ---   -0.03979  -0.00025   0.00009   0.00049   0.00102
     Eigenvalues ---    0.00317   0.01083   0.01865   0.02594   0.03078
     Eigenvalues ---    0.05022   0.05721   0.06017   0.06879   0.07127
     Eigenvalues ---    0.07487   0.07519   0.08156   0.08276   0.08653
     Eigenvalues ---    0.10016   0.10437   0.13043   0.13516   0.13535
     Eigenvalues ---    0.13678   0.14005   0.18039   0.19472   0.20418
     Eigenvalues ---    0.21311   0.27504   0.32559   0.33357   0.34003
     Eigenvalues ---    0.34259   0.34319   0.34833   0.38250   0.52319
     Eigenvalues ---    0.58515   0.71914
 Eigenvectors required to have negative eigenvalues:
                          R12       R15       R9        R13       D10
   1                   -0.56036   0.51243   0.47728  -0.36463   0.09172
                          D14       A21       D11       D15       A18
   1                    0.08729   0.08125   0.07921   0.07897  -0.07195
 Eigenvalue     2 is  -2.54D-04 should be greater than     0.000000 Eigenvector:
                          D14       D7        D15       D2        D3
   1                    0.49275  -0.48298   0.42598  -0.23678  -0.23499
                          D1        D12       D13       A16       A18
   1                   -0.22904   0.19907   0.14696  -0.14370   0.14041
 RFO step:  Lambda0=6.739107047D-03 Lambda=-1.40679490D-03.
 Linear search not attempted -- option 19 set.
 Maximum step size (   0.300) exceeded in Quadratic search.
    -- Step size scaled by   0.520
 Iteration  1 RMS(Cart)=  0.15449587 RMS(Int)=  0.01649099
 Iteration  2 RMS(Cart)=  0.02934189 RMS(Int)=  0.00060585
 Iteration  3 RMS(Cart)=  0.00063413 RMS(Int)=  0.00028878
 Iteration  4 RMS(Cart)=  0.00000035 RMS(Int)=  0.00028878
 Variable       Old X    -DE/DX   Delta X   Delta X   Delta X     New X
                                 (Linear)    (Quad)   (Total)
    R1        3.48110  -0.00104   0.00000   0.00117   0.00117   3.48227
    R2        2.06150   0.00017   0.00000   0.00058   0.00058   2.06208
    R3        2.06218   0.00021   0.00000   0.00050   0.00050   2.06268
    R4        2.06925  -0.00085   0.00000  -0.00191  -0.00191   2.06734
    R5        3.43936   0.00134   0.00000   0.01843   0.01843   3.45779
    R6        2.06135  -0.00055   0.00000  -0.00062  -0.00062   2.06073
    R7        2.05912   0.00021   0.00000   0.00087   0.00087   2.05999
    R8        2.06022  -0.00005   0.00000   0.00027   0.00027   2.06050
    R9        3.39283  -0.00662   0.00000   0.16030   0.16030   3.55313
   R10        3.23516   0.00469   0.00000   0.00191   0.00191   3.23707
   R11        2.29119  -0.00149   0.00000   0.00089   0.00089   2.29207
   R12        2.50086   0.00912   0.00000  -0.10350  -0.10350   2.39736
   R13        2.12676   0.00308   0.00000  -0.11791  -0.11791   2.00885
   R14        1.82440   0.00002   0.00000   0.00084   0.00084   1.82524
   R15        2.24368  -0.01280   0.00000   0.08188   0.08188   2.32557
    A1        1.90858  -0.00032   0.00000   0.00391   0.00390   1.91248
    A2        1.93254  -0.00025   0.00000  -0.00561  -0.00561   1.92693
    A3        1.95367  -0.00067   0.00000   0.00047   0.00046   1.95413
    A4        1.88925   0.00038   0.00000   0.00013   0.00013   1.88938
    A5        1.88778   0.00047   0.00000   0.00253   0.00252   1.89030
    A6        1.89038   0.00045   0.00000  -0.00129  -0.00130   1.88908
    A7        1.91990   0.00023   0.00000   0.00287   0.00286   1.92276
    A8        1.84034   0.00084   0.00000  -0.00795  -0.00795   1.83239
    A9        1.92061  -0.00003   0.00000   0.00964   0.00963   1.93023
   A10        1.93187  -0.00040   0.00000  -0.00307  -0.00307   1.92880
   A11        1.91769  -0.00024   0.00000  -0.00094  -0.00096   1.91672
   A12        1.93224  -0.00035   0.00000  -0.00059  -0.00058   1.93167
   A13        1.67502   0.00120   0.00000   0.02144   0.02144   1.69645
   A14        1.69571   0.00445   0.00000  -0.01677  -0.01677   1.67894
   A15        2.12417  -0.00380   0.00000   0.00214   0.00156   2.12573
   A16        2.02446   0.00545   0.00000   0.07238   0.07178   2.09624
   A17        2.13028  -0.00156   0.00000  -0.06904  -0.06965   2.06063
   A18        2.90002   0.00231   0.00000  -0.10217  -0.10217   2.79785
   A19        1.88323  -0.00022   0.00000  -0.00488  -0.00515   1.87808
   A20        1.74496   0.00314   0.00000  -0.07181  -0.07210   1.67286
   A21        1.98193  -0.00237   0.00000   0.01015   0.00950   1.99143
   A22        2.96904   0.00608   0.00000   0.06917   0.06917   3.03820
    D1       -2.99881  -0.00002   0.00000   0.08054   0.08053  -2.91828
    D2        1.20410  -0.00013   0.00000   0.08136   0.08137   1.28547
    D3       -0.90716  -0.00007   0.00000   0.08660   0.08660  -0.82056
    D4       -1.04744  -0.00003   0.00000  -0.03433  -0.03435  -1.08179
    D5       -3.13102  -0.00015   0.00000  -0.02763  -0.02765   3.12452
    D6        1.06777  -0.00020   0.00000  -0.02741  -0.02738   1.04039
    D7        1.55735   0.00091   0.00000   0.17168   0.17168   1.72903
    D8        0.07360  -0.00113   0.00000   0.02762   0.02832   0.10193
    D9       -2.97067  -0.00205   0.00000  -0.03079  -0.03150  -3.00217
   D10        0.61995   0.00023   0.00000   0.02962   0.02891   0.64886
   D11       -2.42395  -0.00055   0.00000  -0.03338  -0.03267  -2.45662
   D12        2.15811  -0.00028   0.00000  -0.07790  -0.07733   2.08079
   D13        0.08293   0.00099   0.00000  -0.05392  -0.05449   0.02844
   D14       -0.47259  -0.00017   0.00000  -0.17631  -0.17621  -0.64880
   D15       -2.47372  -0.00074   0.00000  -0.13439  -0.13449  -2.60821
         Item               Value     Threshold  Converged?
 Maximum Force            0.012805     0.000450     NO 
 RMS     Force            0.002991     0.000300     NO 
 Maximum Displacement     0.447326     0.001800     NO 
 RMS     Displacement     0.177340     0.001200     NO 
 Predicted change in Energy= 2.076675D-03
 GradGradGradGradGradGradGradGradGradGradGradGradGradGradGradGradGradGrad

 Leave Link  103 at Fri Jul  6 15:15:32 2012, MaxMem= 1073741824 cpu:       6.2
 (Enter /group/hpc-share/gaussian/2009B/g09/l202.exe)
                          Input orientation:                          
 ---------------------------------------------------------------------
 Center     Atomic      Atomic             Coordinates (Angstroms)
 Number     Number       Type             X           Y           Z
 ---------------------------------------------------------------------
      1          6           0       -2.615865   -0.873716    1.135658
      2          6           0        2.734095   -1.315312    0.151999
      3         16           0       -2.079883   -0.414887   -0.566659
      4         16           0        1.009791   -0.877885   -0.276424
      5          1           0       -2.762329   -1.953458    1.194317
      6          1           0       -3.561298   -0.386612    1.381230
      7          1           0       -1.876613   -0.585803    1.888934
      8          1           0        3.428243   -0.810238   -0.520483
      9          1           0        2.792031   -2.395800    0.019693
     10          1           0        2.954081   -1.041495    1.184245
     11          7           0        1.163600    0.800673    0.028695
     12          8           0        2.231785    1.304889    0.304195
     13          1           0       -1.545443    1.345608   -0.178962
     14          1           0       -1.020541    2.818442   -0.668167
     15          8           0       -0.919688    2.175190    0.045252
     16          1           0        0.138201    1.547420    0.010018
 ---------------------------------------------------------------------
                    Distance matrix (angstroms):
                    1          2          3          4          5
     1  C    0.000000
     2  C    5.457533   0.000000
     3  S    1.842739   4.949911   0.000000
     4  S    3.890934   1.829786   3.137624   0.000000
     5  H    1.091208   5.630660   2.435974   4.189131   0.000000
     6  H    1.091521   6.481163   2.447379   4.887127   1.768698
     7  H    1.093989   4.980738   2.469913   3.620140   1.771289
     8  H    6.267222   1.090492   5.522489   2.431677   6.524620
     9  H    5.727779   1.090099   5.291821   2.359689   5.694411
    10  H    5.572684   1.090368   5.366479   2.437332   5.788706
    11  N    4.279404   2.638002   3.514571   1.712983   4.935263
    12  O    5.379346   2.672252   4.722976   2.568052   6.029122
    13  H    2.792745   5.050196   1.880233   3.388604   3.774989
    14  H    4.408047   5.644280   3.403958   4.235392   5.410518
    15  O    3.655383   5.054219   2.903272   3.625966   4.664912
    16  H    3.835863   3.867048   3.017134   2.593033   4.698062
                    6          7          8          9         10
     6  H    0.000000
     7  H    1.770764   0.000000
     8  H    7.256008   5.830708   0.000000
     9  H    6.801132   5.344752   1.791805   0.000000
    10  H    6.551170   4.903044   1.784490   1.793484   0.000000
    11  N    5.056051   3.824356   2.832885   3.587382   2.816860
    12  O    6.130334   4.792186   2.566197   3.753654   2.608010
    13  H    3.081956   2.848898   5.431562   5.731603   5.272790
    14  H    4.574697   4.342869   5.742892   6.495936   5.841932
    15  O    3.914814   3.455134   5.304464   5.888248   5.162408
    16  H    4.393973   3.484314   4.082200   4.753092   4.001308
                   11         12         13         14         15
    11  N    0.000000
    12  O    1.212912   0.000000
    13  H    2.771099   3.808222   0.000000
    14  H    3.054093   3.716713   1.638318   0.000000
    15  O    2.495929   3.279674   1.063037   0.965873   0.000000
    16  H    1.268630   2.128017   1.706195   1.848815   1.230637
                   16
    16  H    0.000000
 Stoichiometry    C2H9NO2S2
 Framework group  C1[X(C2H9NO2S2)]
 Deg. of freedom    42
 Full point group                 C1      NOp   1
 Largest Abelian subgroup         C1      NOp   1
 Largest concise Abelian subgroup C1      NOp   1
                         Standard orientation:                         
 ---------------------------------------------------------------------
 Center     Atomic      Atomic             Coordinates (Angstroms)
 Number     Number       Type             X           Y           Z
 ---------------------------------------------------------------------
      1          6           0       -2.626341   -0.935971    1.043235
      2          6           0        2.748605   -1.236029    0.146246
      3         16           0       -2.070325   -0.418696   -0.635741
      4         16           0        1.023060   -0.823682   -0.301618
      5          1           0       -2.750258   -2.019800    1.069583
      6          1           0       -3.586379   -0.476124    1.284661
      7          1           0       -1.907040   -0.653428    1.817565
      8          1           0        3.443419   -0.697792   -0.499282
      9          1           0        2.832416   -2.310943   -0.014533
     10          1           0        2.944195   -0.986384    1.189474
     11          7           0        1.134805    0.848642    0.052158
     12          8           0        2.186685    1.367639    0.360941
     13          1           0       -1.581353    1.341325   -0.190196
     14          1           0       -1.080065    2.838031   -0.629134
     15          8           0       -0.977909    2.177492    0.068120
     16          1           0        0.093870    1.573614    0.035127
 ---------------------------------------------------------------------
 Rotational constants (GHZ):      2.1492496      0.9190471      0.7149310
 Leave Link  202 at Fri Jul  6 15:15:34 2012, MaxMem= 1073741824 cpu:       0.0
 (Enter /group/hpc-share/gaussian/2009B/g09/l301.exe)
 Standard basis: 6-311G(2d,d,p) (5D, 7F)
 Ernie: Thresh=  0.10000D-02 Tol=  0.10000D-05 Strict=F.
 There are   206 symmetry adapted basis functions of A   symmetry.
 Integral buffers will be    131072 words long.
 Raffenetti 2 integral format.
 Two-electron integral symmetry is turned on.
   206 basis functions,   336 primitive gaussians,   215 cartesian basis functions
    38 alpha electrons       38 beta electrons
       nuclear repulsion energy       466.1991836437 Hartrees.
 IExCor=  402 DFT=T Ex+Corr=B3LYP ExCW=0 ScaHFX=  0.200000
 ScaDFX=  0.800000  0.720000  1.000000  0.810000 ScalE2=  1.000000  1.000000
 IRadAn=      0 IRanWt=     -1 IRanGd=            0 ICorTp=0
 NAtoms=   16 NActive=   16 NUniq=   16 SFac= 1.00D+00 NAtFMM=   50 NAOKFM=F Big=F
 Leave Link  301 at Fri Jul  6 15:15:34 2012, MaxMem= 1073741824 cpu:       0.4
 (Enter /group/hpc-share/gaussian/2009B/g09/l302.exe)
 NPDir=0 NMtPBC=     1 NCelOv=     1 NCel=       1 NClECP=     1 NCelD=      1
         NCelK=      1 NCelE2=     1 NClLst=     1 CellRange=     0.0.
 One-electron integrals computed using PRISM.
 NBasis=   206 RedAO= T  NBF=   206
 NBsUse=   206 1.00D-06 NBFU=   206
 Precomputing XC quadrature grid using
 IXCGrd= 2 IRadAn=           0 IRanWt=          -1 IRanGd=           0 AccXCQ= 0.00D+00.
 NRdTot=    1015 NPtTot=      129054 NUsed=      136380 NTot=      136412
 NSgBfM=   215   215   215   215   215 NAtAll=    16    16.
 Leave Link  302 at Fri Jul  6 15:15:35 2012, MaxMem= 1073741824 cpu:       2.3
 (Enter /group/hpc-share/gaussian/2009B/g09/l303.exe)
 DipDrv:  MaxL=1.
 Leave Link  303 at Fri Jul  6 15:15:36 2012, MaxMem= 1073741824 cpu:       0.4
 (Enter /group/hpc-share/gaussian/2009B/g09/l401.exe)
 Initial guess read from the read-write file.
 B after Tr=     0.000000    0.000000    0.000000
         Rot=    1.000000    0.000000    0.000000    0.000000 Ang=   0.00 deg.
 Guess basis will be translated and rotated to current coordinates.
 Initial guess orbital symmetries:
       Occupied  (A) (A) (A) (A) (A) (A) (A) (A) (A) (A) (A) (A)
                 (A) (A) (A) (A) (A) (A) (A) (A) (A) (A) (A) (A)
                 (A) (A) (A) (A) (A) (A) (A) (A) (A) (A) (A) (A)
                 (A) (A)
       Virtual   (A) (A) (A) (A) (A) (A) (A) (A) (A) (A) (A) (A)
                 (A) (A) (A) (A) (A) (A) (A) (A) (A) (A) (A) (A)
                 (A) (A) (A) (A) (A) (A) (A) (A) (A) (A) (A) (A)
                 (A) (A) (A) (A) (A) (A) (A) (A) (A) (A) (A) (A)
                 (A) (A) (A) (A) (A) (A) (A) (A) (A) (A) (A) (A)
                 (A) (A) (A) (A) (A) (A) (A) (A) (A) (A) (A) (A)
                 (A) (A) (A) (A) (A) (A) (A) (A) (A) (A) (A) (A)
                 (A) (A) (A) (A) (A) (A) (A) (A) (A) (A) (A) (A)
                 (A) (A) (A) (A) (A) (A) (A) (A) (A) (A) (A) (A)
                 (A) (A) (A) (A) (A) (A) (A) (A) (A) (A) (A) (A)
                 (A) (A) (A) (A) (A) (A) (A) (A) (A) (A) (A) (A)
                 (A) (A) (A) (A) (A) (A) (A) (A) (A) (A) (A) (A)
                 (A) (A) (A) (A) (A) (A) (A) (A) (A) (A) (A) (A)
                 (A) (A) (A) (A) (A) (A) (A) (A) (A) (A) (A) (A)
 The electronic state of the initial guess is 1-A.
 Generating alternative initial guess.
 Harris functional with IExCor=  402 diagonalized for initial guess.
 ExpMin= 7.71D-02 ExpMax= 9.34D+04 ExpMxC= 3.17D+03 IAcc=2 IRadAn=         0 AccDes= 0.00D+00
 HarFok:  IExCor=  402 AccDes= 0.00D+00 IRadAn=         0 IDoV= 1
 ScaDFX=  1.000000  1.000000  1.000000  1.000000
 FoFCou: FMM=F IPFlag=           0 FMFlag=      100000 FMFlg1=           0
         NFxFlg=           0 DoJE=T BraDBF=F KetDBF=T FulRan=T
         Omega=  0.000000  0.000000  1.000000  0.000000  0.000000 ICntrl=     500 IOpCl=  0
         NMat0=    1 NMatS0=    1 NMatT0=    0 NMatD0=    1 NMtDS0=    0 NMtDT0=    0
         I1Cent=           4 NGrid=           0.
 Petite list used in FoFCou.
 Harris En= -1083.17919652256    
 Leave Link  401 at Fri Jul  6 15:15:39 2012, MaxMem= 1073741824 cpu:      13.3
 (Enter /group/hpc-share/gaussian/2009B/g09/l502.exe)
 Closed shell SCF:
 Requested convergence on RMS density matrix=1.00D-08 within 128 cycles.
 Requested convergence on MAX density matrix=1.00D-06.
 Requested convergence on             energy=1.00D-06.
 No special actions if energy rises.
 Using DIIS extrapolation, IDIIS=  1040.
 Integral symmetry usage will be decided dynamically.
       136223 words used for storage of precomputed grid.
 Keep R1 ints in memory in canonical form, NReq=274930943.
 IEnd=      296379 IEndB=      296379 NGot=  1073741824 MDV=   803912688
 LenX=   803912688 LenY=   803866022
 Symmetry not used in FoFDir.
 MinBra= 0 MaxBra= 2 Meth= 1.
 IRaf=       0 NMat=   1 IRICut=       1 DoRegI=T DoRafI=F ISym2E= 0 JSym2E=0.
 Integral accuracy reduced to 1.0D-05 until final iterations.

 Cycle   1  Pass 0  IDiag  1:
 E= -1083.16994979720    
 DIIS: error= 9.88D-03 at cycle   1 NSaved=   1.
 NSaved= 1 IEnMin= 1 EnMin= -1083.16994979720     IErMin= 1 ErrMin= 9.88D-03
 ErrMax= 9.88D-03 EMaxC= 1.00D-01 BMatC= 3.16D-02 BMatP= 3.16D-02
 IDIUse=3 WtCom= 9.01D-01 WtEn= 9.88D-02
 Coeff-Com:  0.100D+01
 Coeff-En:   0.100D+01
 Coeff:      0.100D+01
 Gap=     0.061 Goal=   None    Shift=    0.000
 GapD=    0.061 DampG=0.500 DampE=1.000 DampFc=0.5000 IDamp=-1.
 Damping current iteration by 5.00D-01
 RMSDP=1.22D-03 MaxDP=1.95D-02              OVMax= 6.92D-02

 Cycle   2  Pass 0  IDiag  1:
 E= -1083.19758717220     Delta-E=       -0.027637375000 Rises=F Damp=T
 DIIS: error= 5.43D-03 at cycle   2 NSaved=   2.
 NSaved= 2 IEnMin= 2 EnMin= -1083.19758717220     IErMin= 2 ErrMin= 5.43D-03
 ErrMax= 5.43D-03 EMaxC= 1.00D-01 BMatC= 9.31D-03 BMatP= 3.16D-02
 IDIUse=3 WtCom= 9.46D-01 WtEn= 5.43D-02
 Coeff-Com: -0.109D+01 0.209D+01
 Coeff-En:   0.000D+00 0.100D+01
 Coeff:     -0.103D+01 0.203D+01
 Gap=     0.053 Goal=   None    Shift=    0.000
 RMSDP=7.62D-04 MaxDP=1.15D-02 DE=-2.76D-02 OVMax= 4.59D-02

 Cycle   3  Pass 0  IDiag  1:
 E= -1083.22665220783     Delta-E=       -0.029065035636 Rises=F Damp=F
 DIIS: error= 3.16D-03 at cycle   3 NSaved=   3.
 NSaved= 3 IEnMin= 3 EnMin= -1083.22665220783     IErMin= 3 ErrMin= 3.16D-03
 ErrMax= 3.16D-03 EMaxC= 1.00D-01 BMatC= 2.11D-03 BMatP= 9.31D-03
 IDIUse=3 WtCom= 9.68D-01 WtEn= 3.16D-02
 Coeff-Com: -0.696D+00 0.129D+01 0.402D+00
 Coeff-En:   0.000D+00 0.000D+00 0.100D+01
 Coeff:     -0.674D+00 0.125D+01 0.421D+00
 Gap=     0.040 Goal=   None    Shift=    0.000
 RMSDP=2.99D-04 MaxDP=9.41D-03 DE=-2.91D-02 OVMax= 4.34D-02

 Cycle   4  Pass 0  IDiag  1:
 E= -1083.22829555386     Delta-E=       -0.001643346023 Rises=F Damp=F
 DIIS: error= 1.05D-03 at cycle   4 NSaved=   4.
 NSaved= 4 IEnMin= 4 EnMin= -1083.22829555386     IErMin= 4 ErrMin= 1.05D-03
 ErrMax= 1.05D-03 EMaxC= 1.00D-01 BMatC= 3.32D-04 BMatP= 2.11D-03
 IDIUse=3 WtCom= 9.89D-01 WtEn= 1.05D-02
 Coeff-Com: -0.260D+00 0.479D+00 0.289D+00 0.493D+00
 Coeff-En:   0.000D+00 0.000D+00 0.184D+00 0.816D+00
 Coeff:     -0.257D+00 0.474D+00 0.287D+00 0.496D+00
 Gap=     0.045 Goal=   None    Shift=    0.000
 RMSDP=1.40D-04 MaxDP=3.99D-03 DE=-1.64D-03 OVMax= 2.26D-02

 Cycle   5  Pass 0  IDiag  1:
 E= -1083.22857061619     Delta-E=       -0.000275062330 Rises=F Damp=F
 DIIS: error= 9.51D-04 at cycle   5 NSaved=   5.
 NSaved= 5 IEnMin= 5 EnMin= -1083.22857061619     IErMin= 5 ErrMin= 9.51D-04
 ErrMax= 9.51D-04 EMaxC= 1.00D-01 BMatC= 7.86D-05 BMatP= 3.32D-04
 IDIUse=3 WtCom= 9.90D-01 WtEn= 9.51D-03
 Coeff-Com: -0.126D+00 0.230D+00 0.181D+00 0.390D+00 0.325D+00
 Coeff-En:   0.000D+00 0.000D+00 0.000D+00 0.200D+00 0.800D+00
 Coeff:     -0.124D+00 0.228D+00 0.180D+00 0.388D+00 0.329D+00
 Gap=     0.043 Goal=   None    Shift=    0.000
 RMSDP=4.46D-05 MaxDP=1.73D-03 DE=-2.75D-04 OVMax= 4.84D-03

 Cycle   6  Pass 0  IDiag  1:
 E= -1083.22864150765     Delta-E=       -0.000070891464 Rises=F Damp=F
 DIIS: error= 2.46D-04 at cycle   6 NSaved=   6.
 NSaved= 6 IEnMin= 6 EnMin= -1083.22864150765     IErMin= 6 ErrMin= 2.46D-04
 ErrMax= 2.46D-04 EMaxC= 1.00D-01 BMatC= 9.38D-06 BMatP= 7.86D-05
 IDIUse=3 WtCom= 9.98D-01 WtEn= 2.46D-03
 Coeff-Com: -0.197D-01 0.348D-01 0.584D-01 0.187D+00 0.250D+00 0.489D+00
 Coeff-En:   0.000D+00 0.000D+00 0.000D+00 0.000D+00 0.885D-01 0.911D+00
 Coeff:     -0.196D-01 0.347D-01 0.583D-01 0.187D+00 0.250D+00 0.490D+00
 Gap=     0.043 Goal=   None    Shift=    0.000
 RMSDP=1.62D-05 MaxDP=5.05D-04 DE=-7.09D-05 OVMax= 1.80D-03

 Cycle   7  Pass 0  IDiag  1:
 E= -1083.22864982017     Delta-E=       -0.000008312526 Rises=F Damp=F
 DIIS: error= 5.56D-05 at cycle   7 NSaved=   7.
 NSaved= 7 IEnMin= 7 EnMin= -1083.22864982017     IErMin= 7 ErrMin= 5.56D-05
 ErrMax= 5.56D-05 EMaxC= 1.00D-01 BMatC= 7.29D-07 BMatP= 9.38D-06
 IDIUse=1 WtCom= 1.00D+00 WtEn= 0.00D+00
 Coeff-Com:  0.947D-02-0.182D-01 0.510D-02 0.536D-01 0.682D-01 0.250D+00
 Coeff-Com:  0.632D+00
 Coeff:      0.947D-02-0.182D-01 0.510D-02 0.536D-01 0.682D-01 0.250D+00
 Coeff:      0.632D+00
 Gap=     0.043 Goal=   None    Shift=    0.000
 RMSDP=7.07D-06 MaxDP=1.73D-04 DE=-8.31D-06 OVMax= 7.71D-04

 Initial convergence to 1.0D-05 achieved.  Increase integral accuracy.
 Cycle   8  Pass 1  IDiag  1:
 E= -1083.22876434770     Delta-E=       -0.000114527524 Rises=F Damp=F
 DIIS: error= 2.03D-05 at cycle   1 NSaved=   1.
 NSaved= 1 IEnMin= 1 EnMin= -1083.22876434770     IErMin= 1 ErrMin= 2.03D-05
 ErrMax= 2.03D-05 EMaxC= 1.00D-01 BMatC= 4.01D-07 BMatP= 4.01D-07
 IDIUse=1 WtCom= 1.00D+00 WtEn= 0.00D+00
 Coeff-Com:  0.100D+01
 Coeff:      0.100D+01
 Gap=     0.043 Goal=   None    Shift=    0.000
 RMSDP=7.07D-06 MaxDP=1.73D-04 DE=-1.15D-04 OVMax= 5.83D-04

 Cycle   9  Pass 1  IDiag  1:
 E= -1083.22876407226     Delta-E=        0.000000275437 Rises=F Damp=F
 DIIS: error= 5.12D-05 at cycle   2 NSaved=   2.
 NSaved= 2 IEnMin= 1 EnMin= -1083.22876434770     IErMin= 1 ErrMin= 2.03D-05
 ErrMax= 5.12D-05 EMaxC= 1.00D-01 BMatC= 6.66D-07 BMatP= 4.01D-07
 IDIUse=1 WtCom= 1.00D+00 WtEn= 0.00D+00
 Coeff-Com:  0.579D+00 0.421D+00
 Coeff:      0.579D+00 0.421D+00
 Gap=     0.043 Goal=   None    Shift=    0.000
 RMSDP=4.96D-06 MaxDP=1.81D-04 DE= 2.75D-07 OVMax= 5.00D-04

 Cycle  10  Pass 1  IDiag  1:
 E= -1083.22876455215     Delta-E=       -0.000000479890 Rises=F Damp=F
 DIIS: error= 4.22D-05 at cycle   3 NSaved=   3.
 NSaved= 3 IEnMin= 3 EnMin= -1083.22876455215     IErMin= 1 ErrMin= 2.03D-05
 ErrMax= 4.22D-05 EMaxC= 1.00D-01 BMatC= 1.88D-07 BMatP= 4.01D-07
 IDIUse=1 WtCom= 1.00D+00 WtEn= 0.00D+00
 Coeff-Com:  0.157D+00 0.326D+00 0.516D+00
 Coeff:      0.157D+00 0.326D+00 0.516D+00
 Gap=     0.043 Goal=   None    Shift=    0.000
 RMSDP=3.02D-06 MaxDP=1.16D-04 DE=-4.80D-07 OVMax= 3.20D-04

 Cycle  11  Pass 1  IDiag  1:
 E= -1083.22876465841     Delta-E=       -0.000000106256 Rises=F Damp=F
 DIIS: error= 2.66D-05 at cycle   4 NSaved=   4.
 NSaved= 4 IEnMin= 4 EnMin= -1083.22876465841     IErMin= 1 ErrMin= 2.03D-05
 ErrMax= 2.66D-05 EMaxC= 1.00D-01 BMatC= 9.63D-08 BMatP= 1.88D-07
 IDIUse=1 WtCom= 1.00D+00 WtEn= 0.00D+00
 Coeff-Com: -0.103D-01 0.185D+00 0.446D+00 0.379D+00
 Coeff:     -0.103D-01 0.185D+00 0.446D+00 0.379D+00
 Gap=     0.043 Goal=   None    Shift=    0.000
 RMSDP=1.95D-06 MaxDP=5.49D-05 DE=-1.06D-07 OVMax= 3.00D-04

 Cycle  12  Pass 1  IDiag  1:
 E= -1083.22876475488     Delta-E=       -0.000000096469 Rises=F Damp=F
 DIIS: error= 5.48D-06 at cycle   5 NSaved=   5.
 NSaved= 5 IEnMin= 5 EnMin= -1083.22876475488     IErMin= 5 ErrMin= 5.48D-06
 ErrMax= 5.48D-06 EMaxC= 1.00D-01 BMatC= 4.12D-09 BMatP= 9.63D-08
 IDIUse=1 WtCom= 1.00D+00 WtEn= 0.00D+00
 Coeff-Com: -0.135D-01 0.994D-01 0.236D+00 0.252D+00 0.426D+00
 Coeff:     -0.135D-01 0.994D-01 0.236D+00 0.252D+00 0.426D+00
 Gap=     0.043 Goal=   None    Shift=    0.000
 RMSDP=3.59D-07 MaxDP=1.08D-05 DE=-9.65D-08 OVMax= 4.35D-05

 Cycle  13  Pass 1  IDiag  1:
 E= -1083.22876475885     Delta-E=       -0.000000003972 Rises=F Damp=F
 DIIS: error= 1.63D-06 at cycle   6 NSaved=   6.
 NSaved= 6 IEnMin= 6 EnMin= -1083.22876475885     IErMin= 6 ErrMin= 1.63D-06
 ErrMax= 1.63D-06 EMaxC= 1.00D-01 BMatC= 7.46D-10 BMatP= 4.12D-09
 IDIUse=1 WtCom= 1.00D+00 WtEn= 0.00D+00
 Coeff-Com: -0.506D-02 0.111D-01 0.213D-03 0.668D-01 0.226D+00 0.701D+00
 Coeff:     -0.506D-02 0.111D-01 0.213D-03 0.668D-01 0.226D+00 0.701D+00
 Gap=     0.043 Goal=   None    Shift=    0.000
 RMSDP=3.89D-07 MaxDP=1.34D-05 DE=-3.97D-09 OVMax= 5.85D-05

 Cycle  14  Pass 1  IDiag  1:
 E= -1083.22876476052     Delta-E=       -0.000000001676 Rises=F Damp=F
 DIIS: error= 1.17D-06 at cycle   7 NSaved=   7.
 NSaved= 7 IEnMin= 7 EnMin= -1083.22876476052     IErMin= 7 ErrMin= 1.17D-06
 ErrMax= 1.17D-06 EMaxC= 1.00D-01 BMatC= 1.75D-10 BMatP= 7.46D-10
 IDIUse=1 WtCom= 1.00D+00 WtEn= 0.00D+00
 Coeff-Com:  0.217D-02-0.294D-01-0.987D-01-0.406D-01 0.102D-02 0.454D+00
 Coeff-Com:  0.712D+00
 Coeff:      0.217D-02-0.294D-01-0.987D-01-0.406D-01 0.102D-02 0.454D+00
 Coeff:      0.712D+00
 Gap=     0.043 Goal=   None    Shift=    0.000
 RMSDP=3.49D-07 MaxDP=1.25D-05 DE=-1.68D-09 OVMax= 4.65D-05

 Cycle  15  Pass 1  IDiag  1:
 E= -1083.22876476110     Delta-E=       -0.000000000576 Rises=F Damp=F
 DIIS: error= 2.02D-07 at cycle   8 NSaved=   8.
 NSaved= 8 IEnMin= 8 EnMin= -1083.22876476110     IErMin= 8 ErrMin= 2.02D-07
 ErrMax= 2.02D-07 EMaxC= 1.00D-01 BMatC= 3.47D-11 BMatP= 1.75D-10
 IDIUse=1 WtCom= 1.00D+00 WtEn= 0.00D+00
 Coeff-Com:  0.209D-02-0.232D-01-0.711D-01-0.394D-01-0.362D-01 0.168D+00
 Coeff-Com:  0.473D+00 0.527D+00
 Coeff:      0.209D-02-0.232D-01-0.711D-01-0.394D-01-0.362D-01 0.168D+00
 Coeff:      0.473D+00 0.527D+00
 Gap=     0.043 Goal=   None    Shift=    0.000
 RMSDP=1.01D-07 MaxDP=3.50D-06 DE=-5.76D-10 OVMax= 1.57D-05

 Cycle  16  Pass 1  IDiag  1:
 E= -1083.22876476117     Delta-E=       -0.000000000069 Rises=F Damp=F
 DIIS: error= 4.03D-08 at cycle   9 NSaved=   9.
 NSaved= 9 IEnMin= 9 EnMin= -1083.22876476117     IErMin= 9 ErrMin= 4.03D-08
 ErrMax= 4.03D-08 EMaxC= 1.00D-01 BMatC= 6.97D-13 BMatP= 3.47D-11
 IDIUse=1 WtCom= 1.00D+00 WtEn= 0.00D+00
 Coeff-Com:  0.528D-03-0.452D-02-0.136D-01-0.750D-02-0.988D-02 0.116D-01
 Coeff-Com:  0.965D-01 0.181D+00 0.746D+00
 Coeff:      0.528D-03-0.452D-02-0.136D-01-0.750D-02-0.988D-02 0.116D-01
 Coeff:      0.965D-01 0.181D+00 0.746D+00
 Gap=     0.043 Goal=   None    Shift=    0.000
 RMSDP=1.50D-08 MaxDP=5.85D-07 DE=-6.87D-11 OVMax= 2.57D-06

 Cycle  17  Pass 1  IDiag  1:
 E= -1083.22876476117     Delta-E=        0.000000000001 Rises=F Damp=F
 DIIS: error= 1.96D-08 at cycle  10 NSaved=  10.
 NSaved=10 IEnMin= 9 EnMin= -1083.22876476117     IErMin=10 ErrMin= 1.96D-08
 ErrMax= 1.96D-08 EMaxC= 1.00D-01 BMatC= 9.42D-14 BMatP= 6.97D-13
 IDIUse=1 WtCom= 1.00D+00 WtEn= 0.00D+00
 Coeff-Com:  0.545D-04-0.688D-04-0.332D-04-0.802D-04-0.154D-02-0.829D-02
 Coeff-Com: -0.767D-03 0.352D-01 0.288D+00 0.687D+00
 Coeff:      0.545D-04-0.688D-04-0.332D-04-0.802D-04-0.154D-02-0.829D-02
 Coeff:     -0.767D-03 0.352D-01 0.288D+00 0.687D+00
 Gap=     0.043 Goal=   None    Shift=    0.000
 RMSDP=6.05D-09 MaxDP=2.21D-07 DE= 1.14D-12 OVMax= 1.08D-06

 SCF Done:  E(RB3LYP) =  -1083.22876476     A.U. after   17 cycles
             Convg  =    0.6051D-08             -V/T =  2.0019
 KE= 1.081167665613D+03 PE=-3.499388984872D+03 EE= 8.687933708538D+02
 Leave Link  502 at Fri Jul  6 15:16:01 2012, MaxMem= 1073741824 cpu:     175.2
 (Enter /group/hpc-share/gaussian/2009B/g09/l701.exe)
 Compute integral first derivatives.
 ... and contract with generalized density number  0.
 Leave Link  701 at Fri Jul  6 15:16:02 2012, MaxMem= 1073741824 cpu:       2.0
 (Enter /group/hpc-share/gaussian/2009B/g09/l702.exe)
 L702 exits ... SP integral derivatives will be done elsewhere.
 Leave Link  702 at Fri Jul  6 15:16:03 2012, MaxMem= 1073741824 cpu:       0.3
 (Enter /group/hpc-share/gaussian/2009B/g09/l703.exe)
 Compute integral first derivatives, UseDBF=F ICtDFT=           0.
 Integral derivatives from FoFDir, PRISM(SPDF).
 Calling FoFJK, ICntrl=      2127 FMM=F ISym2X=0 I1Cent= 0 IOpClX= 0 NMat=1 NMatS=1 NMatT=0.
 FoFCou: FMM=F IPFlag=           0 FMFlag=      100000 FMFlg1=         800
         NFxFlg=           0 DoJE=F BraDBF=F KetDBF=F FulRan=T
         Omega=  0.000000  0.000000  1.000000  0.000000  0.000000 ICntrl=    2127 IOpCl=  0
         NMat0=    1 NMatS0=    1 NMatT0=    0 NMatD0=    1 NMtDS0=    0 NMtDT0=    0
         I1Cent=           0 NGrid=           0.
 Symmetry not used in FoFCou.
 Leave Link  703 at Fri Jul  6 15:16:06 2012, MaxMem= 1073741824 cpu:      23.7
 (Enter /group/hpc-share/gaussian/2009B/g09/l716.exe)
 Dipole        = 1.99753713D+00 3.55202071D-01 2.80560402D-01
 ***** Axes restored to original set *****
 -------------------------------------------------------------------
 Center     Atomic                   Forces (Hartrees/Bohr)
 Number     Number              X              Y              Z
 -------------------------------------------------------------------
      1        6           0.000121722   -0.000220276    0.000217492
      2        6           0.000494910   -0.000366408   -0.000294791
      3       16           0.000601880    0.003781960    0.001759865
      4       16           0.000646211   -0.001461224   -0.000286963
      5        1           0.000020070   -0.000111775   -0.000128505
      6        1          -0.000074146    0.000090581   -0.000249229
      7        1          -0.000092642    0.000015797   -0.000583166
      8        1          -0.000065296   -0.000221204    0.000178426
      9        1           0.000239045   -0.000111016    0.000066477
     10        1           0.000229379   -0.000023705    0.000020865
     11        7           0.005158698    0.000516005    0.001620097
     12        8          -0.000867009   -0.001167658   -0.000183538
     13        1          -0.005928553   -0.008998083   -0.002256230
     14        1           0.000835526   -0.000100689   -0.000013975
     15        8           0.009624755    0.003195071    0.002433551
     16        1          -0.010944551    0.005182625   -0.002300375
 -------------------------------------------------------------------
 Cartesian Forces:  Max     0.010944551 RMS     0.003013533
 Leave Link  716 at Fri Jul  6 15:16:08 2012, MaxMem= 1073741824 cpu:       0.3
 (Enter /group/hpc-share/gaussian/2009B/g09/l103.exe)

 GradGradGradGradGradGradGradGradGradGradGradGradGradGradGradGradGradGrad
 Berny optimization.
 Internal  Forces:  Max     0.007678349 RMS     0.001944987
 Search for a saddle point.
 Step number   2 out of a maximum of   62
 All quantities printed in internal units (Hartrees-Bohrs-Radians)
 Swaping is turned off.
 Update second derivatives using D2CorX and points    1    2
 ITU=  0  0
     Eigenvalues ---   -0.03724  -0.00182   0.00017   0.00049   0.00204
     Eigenvalues ---    0.00332   0.01148   0.01866   0.02611   0.03184
     Eigenvalues ---    0.05019   0.05733   0.06035   0.06885   0.07127
     Eigenvalues ---    0.07498   0.07519   0.08156   0.08276   0.08648
     Eigenvalues ---    0.10016   0.10437   0.13043   0.13517   0.13537
     Eigenvalues ---    0.13677   0.14005   0.18153   0.19684   0.20487
     Eigenvalues ---    0.21319   0.27497   0.32559   0.33357   0.34003
     Eigenvalues ---    0.34259   0.34319   0.34833   0.38250   0.52319
     Eigenvalues ---    0.58557   0.71913
 Eigenvectors required to have negative eigenvalues:
                          R12       R15       R9        R13       D14
   1                   -0.56494   0.52239   0.46073  -0.33144   0.12322
                          D15       D11       D10       A21       D12
   1                    0.10483   0.10231   0.09928   0.08319   0.06893
 Eigenvalue     2 is  -1.82D-03 should be greater than     0.000000 Eigenvector:
                          D7        D14       D15       D3        D2
   1                    0.40423  -0.37915  -0.36548   0.32151   0.31630
                          D1        D13       D12       D11       D10
   1                    0.31291  -0.25143  -0.25070   0.22462   0.21783
 RFO step:  Lambda0=3.312446810D-03 Lambda=-1.89567882D-03.
 Linear search not attempted -- option 19 set.
 Iteration  1 RMS(Cart)=  0.20382764 RMS(Int)=  0.07898146
 Iteration  2 RMS(Cart)=  0.17959007 RMS(Int)=  0.03351208
 Iteration  3 RMS(Cart)=  0.09163010 RMS(Int)=  0.00462807
 Iteration  4 RMS(Cart)=  0.00661738 RMS(Int)=  0.00029069
 Iteration  5 RMS(Cart)=  0.00002470 RMS(Int)=  0.00029049
 Iteration  6 RMS(Cart)=  0.00000001 RMS(Int)=  0.00029049
 Variable       Old X    -DE/DX   Delta X   Delta X   Delta X     New X
                                 (Linear)    (Quad)   (Total)
    R1        3.48227  -0.00062   0.00000  -0.01146  -0.01146   3.47081
    R2        2.06208   0.00010   0.00000  -0.00060  -0.00060   2.06149
    R3        2.06268   0.00005   0.00000   0.00097   0.00097   2.06365
    R4        2.06734  -0.00046   0.00000   0.00220   0.00220   2.06954
    R5        3.45779   0.00103   0.00000  -0.02166  -0.02166   3.43614
    R6        2.06073  -0.00026   0.00000  -0.00077  -0.00077   2.05996
    R7        2.05999   0.00011   0.00000  -0.00075  -0.00075   2.05924
    R8        2.06050   0.00007   0.00000  -0.00091  -0.00091   2.05958
    R9        3.55313  -0.00369   0.00000   0.11469   0.11469   3.66782
   R10        3.23707   0.00202   0.00000   0.00198   0.00198   3.23905
   R11        2.29207  -0.00129   0.00000   0.01417   0.01417   2.30624
   R12        2.39736   0.00639   0.00000  -0.07495  -0.07495   2.32241
   R13        2.00885   0.00768   0.00000  -0.07346  -0.07346   1.93539
   R14        1.82524  -0.00014   0.00000  -0.00003  -0.00003   1.82520
   R15        2.32557  -0.00557   0.00000   0.05885   0.05885   2.38442
    A1        1.91248  -0.00004   0.00000   0.00511   0.00510   1.91758
    A2        1.92693  -0.00027   0.00000   0.00228   0.00227   1.92920
    A3        1.95413  -0.00045   0.00000  -0.01037  -0.01037   1.94376
    A4        1.88938   0.00019   0.00000   0.00369   0.00367   1.89305
    A5        1.89030   0.00026   0.00000   0.00180   0.00180   1.89210
    A6        1.88908   0.00034   0.00000  -0.00217  -0.00218   1.88690
    A7        1.92276   0.00008   0.00000  -0.00921  -0.00925   1.91351
    A8        1.83239   0.00032   0.00000   0.01295   0.01296   1.84535
    A9        1.93023   0.00025   0.00000  -0.00999  -0.01002   1.92021
   A10        1.92880  -0.00021   0.00000   0.00618   0.00618   1.93498
   A11        1.91672  -0.00020   0.00000   0.00015   0.00007   1.91680
   A12        1.93167  -0.00021   0.00000   0.00022   0.00023   1.93189
   A13        1.69645   0.00124   0.00000  -0.05616  -0.05616   1.64029
   A14        1.67894   0.00150   0.00000   0.02396   0.02396   1.70290
   A15        2.12573  -0.00189   0.00000   0.01370   0.01356   2.13929
   A16        2.09624   0.00227   0.00000  -0.11183  -0.11199   1.98426
   A17        2.06063  -0.00036   0.00000   0.09714   0.09696   2.15759
   A18        2.79785   0.00133   0.00000   0.08185   0.08185   2.87970
   A19        1.87808  -0.00016   0.00000  -0.00064  -0.00168   1.87640
   A20        1.67286   0.00326   0.00000   0.07699   0.07635   1.74921
   A21        1.99143  -0.00143   0.00000   0.01347   0.01269   2.00412
   A22        3.03820   0.00397   0.00000  -0.06351  -0.06351   2.97469
    D1       -2.91828   0.00006   0.00000  -0.20125  -0.20123  -3.11951
    D2        1.28547   0.00001   0.00000  -0.21039  -0.21040   1.07507
    D3       -0.82056   0.00006   0.00000  -0.20225  -0.20226  -1.02282
    D4       -1.08179  -0.00008   0.00000   0.06119   0.06113  -1.02066
    D5        3.12452  -0.00005   0.00000   0.05123   0.05123  -3.10744
    D6        1.04039  -0.00012   0.00000   0.04862   0.04869   1.08909
    D7        1.72903   0.00026   0.00000  -0.42746  -0.42746   1.30157
    D8        0.10193  -0.00020   0.00000  -0.05123  -0.05079   0.05114
    D9       -3.00217  -0.00045   0.00000  -0.02147  -0.02191  -3.02408
   D10        0.64886   0.00030   0.00000   0.05470   0.05428   0.70313
   D11       -2.45662   0.00010   0.00000   0.08492   0.08534  -2.37128
   D12        2.08079  -0.00004   0.00000   0.18182   0.18225   2.26304
   D13        0.02844   0.00022   0.00000   0.13567   0.13524   0.16369
   D14       -0.64880   0.00052   0.00000   0.43693   0.43767  -0.21114
   D15       -2.60821  -0.00060   0.00000   0.39325   0.39251  -2.21570
         Item               Value     Threshold  Converged?
 Maximum Force            0.007678     0.000450     NO 
 RMS     Force            0.001945     0.000300     NO 
 Maximum Displacement     1.272315     0.001800     NO 
 RMS     Displacement     0.418508     0.001200     NO 
 Predicted change in Energy= 4.620088D-04
 GradGradGradGradGradGradGradGradGradGradGradGradGradGradGradGradGradGrad

 Leave Link  103 at Fri Jul  6 15:16:10 2012, MaxMem= 1073741824 cpu:       0.4
 (Enter /group/hpc-share/gaussian/2009B/g09/l202.exe)
                          Input orientation:                          
 ---------------------------------------------------------------------
 Center     Atomic      Atomic             Coordinates (Angstroms)
 Number     Number       Type             X           Y           Z
 ---------------------------------------------------------------------
      1          6           0       -2.405277   -0.824412    1.226925
      2          6           0        2.614930   -1.310930    0.092042
      3         16           0       -2.202566   -0.571304   -0.580898
      4         16           0        1.120983   -0.600874   -0.663105
      5          1           0       -2.753155   -1.839692    1.422458
      6          1           0       -3.138299   -0.123615    1.632024
      7          1           0       -1.460142   -0.674104    1.759360
      8          1           0        3.464298   -0.651263   -0.085974
      9          1           0        2.762906   -2.274334   -0.395206
     10          1           0        2.465748   -1.440394    1.163878
[...]
   XX=             -6.5637   YY=              6.3665   ZZ=              0.1972
   XY=            -10.6150   XZ=             -4.7015   YZ=             -6.9848
 Octapole moment (field-independent basis, Debye-Ang**2):
  XXX=             67.1985  YYY=             21.9769  ZZZ=              0.8190  XYY=             11.8133
  XXY=              1.6168  XXZ=             10.9361  XZZ=             10.7301  YZZ=             10.9444
  YYZ=            -13.4523  XYZ=              7.6124
 Hexadecapole moment (field-independent basis, Debye-Ang**3):
 XXXX=          -1389.7183 YYYY=           -471.5379 ZZZZ=           -239.3494 XXXY=            -62.8169
 XXXZ=            -46.7998 YYYX=            -48.0574 YYYZ=            -43.0391 ZZZX=             12.7036
 ZZZY=             -5.6943 XXYY=           -298.7622 XXZZ=           -272.4980 YYZZ=           -116.7242
 XXYZ=            -21.6252 YYXZ=              4.7314 ZZXY=            -16.3301
 N-N= 4.681216100320D+02 E-N=-3.500020077539D+03  KE= 1.079574568027D+03
 Leave Link  601 at Fri Jul  6 17:27:47 2012, MaxMem= 1073741824 cpu:       2.1
 (Enter /group/hpc-share/gaussian/2009B/g09/l9999.exe)
 1\1\GINC-HPC-CN7\SP\RMP2-FC\CBSB3\C2H9N1O2S2\7832DEYEG\06-Jul-2012\0\\
 #P Geom=AllCheck Guess=TCheck SCRF=Check MP2/CBSB3 CBSExtrap=(NMin=10,
 MinPop)\\51-openshell_s_OH_s\\0,1\C,0,-2.3873323983,-0.8689252424,1.17
 1254907\C,0,2.5785134636,-1.3342667897,0.1308583599\S,0,-2.091423099,-
 0.5378470975,-0.6104555061\S,0,1.0217406403,-0.6862151937,-0.563615354
 4\H,0,-2.624199339,-1.923319143,1.3202731653\H,0,-3.2262728749,-0.2705
 805185,1.5323731918\H,0,-1.5089739938,-0.6199054785,1.7753321536\H,0,3
 .4166755116,-0.7346037987,-0.2244526232\H,0,2.6540259279,-2.3586480285
 ,-0.2335191638\H,0,2.5441865561,-1.3131009742,1.2200261422\N,0,1.13015
 56,0.8730886246,0.1257815932\O,0,2.0917328257,1.2513234986,0.777976280
 9\H,0,-1.5787659218,1.3338734693,-0.3244317641\H,0,-1.1224803721,2.792
 106166,-0.8417399075\O,0,-1.0135280683,2.1788866766,-0.1050573582\H,0,
 0.1861126046,1.5551482461,-0.0170626803\\Version=EM64L-G09RevB.01\Stat
 e=1-A\HF=-1080.1341306\MP2=-1081.5857921\E2(CBS)=-1.6034435\CBS-Int=-1
 .5515958\OIii=11.9679812\RMSD=9.231e-09\PG=C01 [X(C2H9N1O2S2)]\\@


 IT IS WELL TO REMEMBER THAT MAN IS A PART OF NATURE AND THAT HIS WORKS,
 WHATEVER THEY MAY BE, ARE NO MORE "UNNATURAL" THAN 
 THE FLIGHT OF AN EAGLE OR THE PASSAGE OF A TORNADO.

                                    -- CHARLES MCCARRY IN "THE GREAT SOUTHWEST"
    1 imaginary frequencies ignored.

 Complete Basis Set (CBS) Extrapolation:
 M. R. Nyden and G. A. Petersson, JCP 75, 1843 (1981)
 G. A. Petersson and M. A. Al-Laham, JCP 94, 6081 (1991)
 G. A. Petersson, T. Tensfeldt, and J. A. Montgomery, JCP 94, 6091 (1991)
 J. A. Montgomery, J. W. Ochterski, and G. A. Petersson, JCP 101, 5900 (1994)

 Temperature=               298.150000 Pressure=                       1.000000
 E(ZPE)=                      0.114025 E(Thermal)=                     0.125588
 E(SCF)=                  -1080.134131 DE(MP2)=                       -1.451661
 DE(CBS)=                    -0.151782 DE(MP34)=                      -0.062932
 DE(CCSD)=                   -0.045682 DE(Int)=                        0.051848
 DE(Empirical)=              -0.069295
 CBS-QB3 (0 K)=           -1081.749611 CBS-QB3 Energy=             -1081.738048
 CBS-QB3 Enthalpy=        -1081.737104 CBS-QB3 Free Energy=        -1081.789561
 1\1\GINC-HPC-CN7\Mixed\CBS-QB3\CBS-QB3\C2H9N1O2S2\7832DEYEG\06-Jul-201
 2\0\\#P cbs-qb3 Opt(ts,calcfc,noeigentest) freq guess(read) geom(allch
 eck)\\51-openshell_s_OH_s\\0,1\C,0,-2.3873323983,-0.8689252424,1.17125
 4907\C,0,2.5785134636,-1.3342667897,0.1308583599\S,0,-2.091423099,-0.5
 378470975,-0.6104555061\S,0,1.0217406403,-0.6862151937,-0.5636153544\H
 ,0,-2.624199339,-1.923319143,1.3202731653\H,0,-3.2262728749,-0.2705805
 185,1.5323731918\H,0,-1.5089739938,-0.6199054785,1.7753321536\H,0,3.41
 66755116,-0.7346037987,-0.2244526232\H,0,2.6540259279,-2.3586480285,-0
 .2335191638\H,0,2.5441865561,-1.3131009742,1.2200261422\N,0,1.1301556,
 0.8730886246,0.1257815932\O,0,2.0917328257,1.2513234986,0.7779762809\H
 ,0,-1.5787659218,1.3338734693,-0.3244317641\H,0,-1.1224803721,2.792106
 166,-0.8417399075\O,0,-1.0135280683,2.1788866766,-0.1050573582\H,0,0.1
 861126046,1.5551482461,-0.0170626803\\Version=EM64L-G09RevB.01\State=1
 -A\HF/CbsB3=-1080.1341306\E2(CBS)/CbsB3=-1.6034435\CBS-Int/CbsB3=0.051
 8477\OIii/CbsB3=11.9679812\MP2/CbsB4=-1081.2229937\MP4(SDQ)/CbsB4=-108
 1.2859258\MP4(SDQ)/6-31+G(d')=-1081.1315808\QCISD(T)/6-31+G(d')=-1081.
 1772632\CBSQB3=-1081.7496106\FreqCoord=-4.511404421,-1.6420307381,2.21
 3351006,4.8726842762,-2.5213988207,0.2472864623,-3.9522168852,-1.01638
 37156,-1.1535937228,1.930809989,-1.2967587842,-1.0650786641,-4.9590180
 688,-3.6345464465,2.4949547031,-6.0967721635,-0.5113230769,2.895765665
 9,-2.85154759,-1.1714515827,3.3548915653,6.4565810019,-1.3881999958,-0
 .4241539876,5.0153821533,-4.4571988178,-0.4412872663,4.8078158219,-2.4
 81401226,2.3055152838,2.1356845715,1.6498983903,0.2376927637,3.9528021
 837,2.364658716,1.4701621088,-2.9834352202,2.520655553,-0.6130871829,-
 2.1211804927,5.2763159877,-1.5906579003,-1.9152904772,4.1174990934,-0.
 1985296352,0.3517018525,2.9388042812,-0.0322437928\PG=C01 [X(C2H9N1O2S
 2)]\NImag=1\\0.51252443,-0.00488312,0.52773380,0.02816514,0.03328777,0
 .33980311,-0.00020055,-0.00033332,-0.00094877,0.38063155,-0.00025077,-
 0.00039182,-0.00055197,0.07553005,0.52633882,-0.00096195,0.00106539,0.
 00019178,-0.06620043,0.04161339,0.52335483,-0.03257178,-0.00399997,0.0
 1499160,-0.00474859,-0.00279660,-0.00129414,0.04131578,-0.00539829,-0.
 03661374,0.01683472,-0.00085150,-0.00029005,-0.00007698,0.01772794,0.0
 5801786,0.01323047,0.01597199,-0.12337579,0.00015374,0.00075911,0.0014
 9707,-0.02153781,-0.02019198,0.18462792,-0.00124733,0.00107674,0.00311
 617,-0.08934948,-0.00183307,-0.03779824,0.00181856,0.00078820,0.001306
 07,0.17942274,0.00116104,-0.00045485,-0.00050319,0.02093862,-0.0363451
 9,0.01279386,-0.00063051,-0.00074170,0.00057169,-0.01907868,0.19026604
 ,0.00301872,-0.00252169,-0.00175472,-0.02635713,-0.00400793,-0.0602605
 4,-0.00117369,-0.00148168,-0.00264099,0.07396363,0.04998420,0.12137656
 ,-0.06027576,-0.05611295,0.00445303,0.00002416,0.00004555,-0.00029351,
 -0.00017199,-0.00290263,0.00296915,0.00014411,-0.00035160,0.00041952,0
 .05917940,-0.05506397,-0.29944442,0.02667099,0.00002459,0.00002463,-0.
 00005360,-0.00040683,0.00179915,0.00305627,0.00016043,0.00008176,0.000
 15059,0.06037497,0.31967381,0.00594715,0.03395245,-0.04133440,0.000017
 21,0.00004797,0.00006650,0.00708697,0.02303028,-0.01288413,-0.00048158
 ,-0.00020838,-0.00041400,-0.00723339,-0.03105774,0.05152344,-0.2036843
 6,0.11465340,0.06114131,0.00015654,0.00002452,-0.00017843,0.00045455,-
 0.00105992,0.00295173,0.00023286,-0.00033076,0.00037791,0.00645474,-0.
 00418143,-0.00314308,0.21663142,0.11250949,-0.12876402,-0.04583715,0.0
 0017590,0.00013970,-0.00045133,-0.00554856,0.00475176,0.00311749,-0.00
 043859,0.00018012,0.00125170,0.02482566,-0.01650856,-0.00934408,-0.124
 36088,0.13582503,0.06815448,-0.05231323,-0.06310311,0.00002134,-0.0000
 5319,0.00065934,0.01686309,-0.00733727,-0.01791324,-0.00048772,-0.0003
 6637,-0.00124836,-0.00321790,0.00126851,0.00165096,-0.06843646,0.04884
 391,0.07362892,-0.21477896,-0.04894984,-0.10898481,0.00047432,0.000217
 93,-0.00002974,0.00747044,0.00260404,0.00478942,-0.00080750,0.00015144
 ,0.00096072,-0.00539574,-0.00095840,-0.00272261,-0.02038169,-0.0069891
 8,-0.01324135,0.23239073,-0.04742202,-0.06144859,-0.03106361,0.0003468
 3,0.00027477,-0.00032196,0.00430862,0.00226626,0.00353276,-0.00060898,
 0.00012722,0.00071918,-0.02612561,-0.00578675,-0.01675893,0.01476891,0
 .00452598,0.00991966,0.05419272,0.06040379,-0.11936034,-0.03545940,-0.
 11193933,0.00000282,-0.00021268,0.00046965,-0.01162201,-0.00172092,-0.
 02162671,-0.00075993,-0.00057103,-0.00099801,0.00296020,0.00000392,0.0
 0268141,0.00741635,0.00279410,0.00629791,0.12033313,0.03412532,0.12491
 439,-0.00003898,-0.00021143,-0.00030457,-0.20288761,-0.12283792,0.0758
 0795,-0.00159795,-0.00047283,0.00019745,-0.02129342,-0.00315161,0.0018
 1934,0.00001234,0.00001130,0.00000966,0.00002018,0.00009860,-0.0000395
 0,0.00011438,0.00015963,-0.00011558,0.21786168,0.00004443,0.00009572,0
 .00005657,-0.11573497,-0.12647762,0.05060625,0.00002729,0.00021202,-0.
 00010048,0.01138113,0.00325839,-0.00448427,-0.00001262,0.00000200,-0.0
 0001241,-0.00002189,-0.00003166,0.00003452,-0.00003334,-0.00007435,0.0
 0006689,0.12629887,0.13493711,-0.00002414,-0.00008351,-0.00021274,0.07
 003891,0.04949139,-0.07430316,-0.00075038,-0.00012544,-0.00008189,-0.0
 1126158,-0.00520780,0.00194743,0.00001105,-0.00001615,0.00002858,0.000
 02857,0.00003560,0.00000142,0.00010223,0.00007780,-0.00001292,-0.07458
 385,-0.05647660,0.07825050,0.00006664,0.00001823,0.00007251,-0.0428728
 2,0.01871446,0.00888492,0.00046299,-0.00010528,-0.00020456,-0.00263134
 ,0.02184525,0.00884472,-0.00002281,-0.00002110,0.00002720,0.00001243,-
 0.00001626,-0.00000658,-0.00002726,-0.00000795,0.00001164,0.00466833,-
 0.02254306,-0.00921482,0.04750215,-0.00000284,-0.00001016,-0.00003474,
 0.01511715,-0.29022627,-0.08848762,-0.00006195,0.00000505,0.00005926,0
 .00177510,-0.00853755,-0.00173387,-0.00000176,0.00000578,-0.00000659,-
 0.00000124,0.00000323,-0.00000260,0.00001231,0.00001079,0.00001108,0.0
 0251580,-0.01310709,-0.00562548,-0.01971059,0.31018471,0.00002101,-0.0
 0003431,0.00003195,0.00767696,-0.08648757,-0.07643700,0.00025603,-0.00
 000172,-0.00011649,0.00060403,0.01032984,0.00278386,0.00003064,0.00000
 598,0.00000337,0.00000531,0.00001689,-0.00002347,-0.00000853,-0.000015
 09,-0.00002436,-0.00178020,0.01050581,0.00299331,-0.00571414,0.0946344
 1,0.07862137,-0.00041305,0.00022948,-0.00028661,-0.04053788,-0.0012584
 1,0.00980139,-0.00074307,-0.00016175,0.00049124,-0.00711359,0.00412573
 ,-0.02636053,-0.00009874,-0.00003839,0.00007862,0.00001107,-0.00012647
 ,0.00026314,0.00010759,0.00001556,0.00027492,0.00096369,0.00092449,0.0
 2439615,-0.00062795,-0.00091807,0.00284958,0.04705932,0.00020122,-0.00
 012764,-0.00006539,-0.00162561,-0.04396246,-0.00433170,-0.00009604,0.0
 0011648,-0.00030166,0.00230636,-0.00401841,0.00994159,-0.00000834,-0.0
 0000893,-0.00000660,0.00002706,0.00004670,-0.00006333,0.00004218,0.000
 04478,-0.00002445,-0.00025545,0.00015685,0.01702057,0.00027678,0.00199
 903,-0.02971517,-0.00077803,0.04291251,-0.00010191,0.00007634,0.000108
 66,0.01628172,-0.00666373,-0.32116341,-0.00013751,-0.00017800,0.000283
 98,-0.00504948,0.00190405,-0.00677307,-0.00003746,-0.00000307,0.000008
 82,-0.00004440,-0.00004491,0.00003413,-0.00012513,0.00001731,-0.000039
 37,-0.00006257,-0.00132708,-0.00867946,0.00080719,0.00079258,-0.006768
 59,-0.01260352,0.00650210,0.34253970,0.00075078,-0.00410734,-0.0023644
 2,-0.00901884,0.02769840,0.01440960,-0.00124369,-0.01391107,0.00564664
 ,-0.05845525,0.02818348,-0.01631047,-0.00021554,0.00054768,-0.00044653
 ,0.00024228,0.00186688,-0.00152133,-0.00003278,0.00263985,-0.00203832,
 -0.00320228,0.00390614,0.00103034,-0.00933872,-0.00044155,-0.00589294,
 0.00174348,0.00273033,0.00015765,0.58992167,-0.00040782,0.00039673,0.0
 0120844,0.01264842,-0.03144029,-0.01173660,0.00507491,0.00253872,-0.00
 155885,0.03071452,-0.09782229,-0.00741170,0.00008316,-0.00010896,0.000
 15405,0.00038792,-0.00033314,0.00025361,-0.00024805,-0.00012114,0.0006
 6105,-0.00270008,0.00132207,0.00044696,0.00403056,-0.00062886,0.002375
 07,-0.00322926,0.00277416,-0.00138203,-0.02485254,0.34379317,0.0017254
 9,-0.00040125,0.00234797,-0.00698732,-0.00428195,0.01117680,0.00027243
 ,-0.00757161,0.00162327,-0.00040311,-0.00908937,-0.04130457,-0.0006449
 3,0.00034376,-0.00039437,-0.00050032,0.00000707,-0.00095136,-0.0018285
 4,0.00034006,-0.00070705,-0.00480013,0.00391307,-0.00060759,-0.0029023
 8,-0.00059686,-0.00194708,0.00081990,0.00306498,-0.00065147,0.23926742
 ,0.09720316,0.24926781,0.00039726,0.00245567,0.00006884,0.00606037,0.0
 0983566,0.00235018,-0.00190670,0.00747690,-0.00662202,-0.01114272,-0.0
 5219663,-0.02560895,0.00005745,-0.00046703,0.00067533,-0.00004961,-0.0
 0107194,0.00113171,0.00044860,-0.00171996,0.00233107,0.00470858,-0.003
 44739,-0.00001640,0.00130317,0.00194028,0.00133820,0.00035883,-0.00322
 773,0.00087399,-0.39733285,-0.08383873,-0.21751553,0.42005852,0.000298
 57,0.00113731,0.00012936,-0.00467060,0.00526743,0.00059925,-0.00136473
 ,0.00362248,-0.00221346,-0.03666787,-0.03976766,-0.03929310,0.00002906
 ,-0.00012774,0.00014766,-0.00015677,-0.00045898,0.00043481,0.00010479,
 -0.00075533,0.00088203,0.00112699,-0.00050356,0.00093067,-0.00334422,0
 .00022468,-0.00192055,0.00152476,-0.00030408,0.00014401,-0.09136471,-0
 .12168689,-0.08424658,0.13694801,0.13790611,-0.00098538,0.00101793,-0.
 00084463,0.00807512,0.01202133,-0.00600242,-0.00059708,0.00759752,-0.0
 0301488,-0.02800886,-0.05375943,-0.01489097,0.00044095,-0.00034551,0.0
 0055798,0.00025856,-0.00041664,0.00090905,0.00090285,-0.00080386,0.001
 18483,0.00399861,-0.00375718,0.00072612,-0.00090628,0.00103874,0.00018
 791,0.00007422,-0.00162382,0.00125169,-0.22850831,-0.07947514,-0.17990
 614,0.26182673,0.12025239,0.20061746,-0.00094524,-0.00054001,0.0009318
 5,0.00024943,-0.00001329,-0.00068772,-0.00893009,0.01483922,0.00221653
 ,0.00111686,0.00173755,0.00238995,0.00045227,-0.00013948,-0.00029676,0
 .00022932,-0.00086025,-0.00001610,0.00018477,0.00017603,-0.00032788,0.
 00023012,-0.00009092,0.00004051,0.00018002,-0.00000426,0.00008560,-0.0
 0012664,0.00003929,0.00003332,0.01314706,0.00059028,0.00600161,-0.0056
 5451,-0.00460960,-0.00525535,0.11050047,-0.00086259,-0.00025389,0.0025
 7485,0.00052893,-0.00063665,-0.00285594,0.00156765,0.01736778,0.006432
 10,0.00749904,-0.00067712,0.00525081,0.00022144,-0.00001579,-0.0011678
 5,0.00056137,-0.00028596,-0.00083535,-0.00038520,-0.00056261,-0.001107
 79,0.00029865,-0.00024136,0.00004793,0.00048825,-0.00003761,0.00024958
 ,-0.00071984,0.00027014,-0.00009567,0.02494049,-0.00553803,0.00928261,
 -0.01242412,-0.00766943,-0.00860238,0.07540644,0.13793795,0.00187589,0
 .00852268,0.00032165,0.00019151,-0.00007201,-0.00033471,-0.00077970,-0
 .00223696,-0.01200620,0.00085418,-0.00001968,0.00086659,0.00043020,0.0
 0003129,-0.00275002,0.00042045,0.00020958,-0.00016690,-0.00031720,0.00
 046512,-0.00038528,0.00006563,-0.00003678,0.00000373,0.00004205,0.0000
 0449,0.00002000,-0.00012827,0.00003468,-0.00000768,0.00390776,-0.00062
 781,0.00197572,-0.00236763,-0.00121948,-0.00176603,0.03069383,0.011711
 85,0.06491884,-0.00002979,0.00045365,-0.00018458,0.00006968,0.00036559
 ,0.00000703,-0.00095070,-0.00237856,-0.00152770,-0.00050139,0.00091888
 ,-0.00038771,0.00003702,0.00003868,-0.00007632,0.00000083,-0.00000460,
 0.00012316,0.00002334,0.00011061,0.00001248,0.00002777,-0.00007500,-0.
 00002529,-0.00007091,0.00001421,-0.00008185,0.00001599,0.00000709,0.00
 002690,-0.00719339,0.00269488,0.00299248,-0.00088552,0.00018666,-0.001
 16290,0.00634669,-0.00836082,0.01964524,0.03198563,-0.00002441,0.00102
 988,-0.00011073,-0.00009579,-0.00013295,0.00025024,-0.00157960,-0.0024
 0329,-0.00279457,0.00009950,0.00027008,-0.00007741,0.00026208,0.000095
 64,-0.00028750,0.00002139,-0.00002067,0.00002938,0.00016381,0.00010676
 ,0.00009834,-0.00008174,0.00007578,-0.00006360,-0.00004090,0.00000565,
 -0.00002639,0.00001146,-0.00001451,-0.00000057,-0.00026798,0.00046772,
 -0.00021438,0.00041451,0.00026293,0.00007611,0.00663481,-0.01517188,0.
 02613002,-0.02519983,0.23503446,-0.00004397,0.00031065,0.00010062,0.00
 004689,-0.00009311,-0.00008712,-0.00056707,-0.00159812,-0.00070264,-0.
 00006785,-0.00069839,0.00009030,0.00005353,-0.00000330,-0.00013425,0.0
 0003846,-0.00002017,-0.00003780,0.00001900,-0.00005597,0.00000659,0.00
 000722,0.00001167,0.00002083,0.00002248,0.00000394,0.00002668,-0.00002
 790,0.00001305,-0.00001403,0.00440710,-0.00018731,0.00083860,-0.000362
 27,-0.00074241,-0.00010262,0.00170509,-0.00382808,0.00564661,0.0486570
 1,-0.24798975,0.30515606,0.00071324,-0.00238156,-0.00167449,-0.0013851
 7,0.00229582,0.00402287,0.00186177,-0.03177750,-0.00140752,-0.00967879
 ,0.00298242,-0.00630886,-0.00046953,0.00023518,0.00079891,-0.00005859,
 0.00120294,-0.00043368,-0.00015916,0.00079984,-0.00007538,-0.00056760,
 0.00031740,-0.00033920,-0.00120323,0.00006393,-0.00065816,0.00064543,-
 0.00044242,0.00004217,-0.06029332,0.03636070,-0.01825338,0.00596287,0.
 00962033,0.00741566,-0.08772188,-0.05545457,-0.04904890,-0.04095478,0.
 01762162,-0.04917929,0.17259756,-0.00008977,-0.00120307,-0.00180743,0.
 00005643,-0.00069732,0.00121251,-0.01378122,-0.04015978,-0.00832357,-0
 .00267825,-0.00319454,-0.00171091,-0.00016623,0.00013197,0.00145082,-0
 .00054087,0.00008333,0.00083182,0.00043345,0.00017997,0.00088301,-0.00
 010100,0.00024391,0.00016889,0.00005675,0.00001737,0.00017248,0.000383
 43,-0.00011741,-0.00001870,0.02585958,-0.00366325,-0.00413639,0.011543
 33,-0.00082512,0.00789457,-0.09481691,-0.15573745,-0.04528203,0.029423
 32,-0.21511892,0.25400973,0.05495776,0.44705761,-0.00088698,-0.0040608
 9,-0.00099295,0.00000918,0.00073872,0.00042900,-0.00125842,-0.00738355
 ,0.00714695,-0.00230308,0.00168738,-0.00187558,-0.00036857,0.00001126,
 0.00165032,-0.00033644,0.00001731,0.00017179,0.00023038,-0.00013048,0.
 00038208,-0.00003038,-0.00011881,-0.00005065,-0.00024397,0.00005284,-0
 .00021812,0.00013095,-0.00000887,0.00004779,-0.01817764,0.00624828,0.0
 0861434,0.00438226,0.00178110,0.00153641,-0.03060528,-0.01172937,-0.05
 677528,-0.05755139,0.22235769,-0.30954460,0.09149972,-0.20535485,0.371
 19192,-0.00026655,0.00263237,0.00180780,0.00333489,-0.00573793,-0.0078
 3977,-0.00051955,0.01558300,-0.00265283,0.01948567,-0.00630460,0.01071
 285,0.00028862,-0.00011618,-0.00024079,-0.00027195,-0.00126273,0.00084
 369,0.00036894,-0.00163408,0.00095680,0.00098077,-0.00094058,0.0005679
 0,0.00259931,-0.00029652,0.00126847,-0.00124447,0.00080331,-0.00006098
 ,-0.05947861,0.02269113,0.00275631,-0.02238373,-0.00766069,-0.01756855
 ,-0.02925864,-0.03330513,-0.00548502,0.01207955,0.00206108,-0.00470842
 ,0.02071117,-0.01053981,0.01550968,0.05357458,0.00019086,-0.00168124,-
 0.00078850,-0.00205513,-0.00144475,0.00017485,0.00155959,-0.01048900,0
 .00198390,0.00550441,-0.00262431,-0.00457550,-0.00016018,0.00018641,0.
 00006687,0.00020919,0.00084716,-0.00064489,-0.00035867,0.00080847,-0.0
 0042946,-0.00069778,0.00013179,-0.00062123,0.00035906,0.00009126,-0.00
 008926,0.00001531,0.00023278,0.00027737,0.01657237,-0.08994971,-0.0036
 1634,-0.01222084,0.02367786,-0.00111462,0.00165110,0.03125190,0.002385
 05,0.00180524,-0.00448667,0.00086756,-0.03640188,-0.02699731,-0.004107
 76,0.02402736,0.08044537,0.00022633,0.00066906,0.00065195,-0.00202176,
 -0.00224777,0.00074340,0.00024769,0.00244172,-0.00081622,0.00677734,-0
 .00684738,0.00509607,0.00002749,-0.00006320,-0.00026022,0.00000048,-0.
 00017937,0.00009071,-0.00007982,-0.00004730,-0.00020381,-0.00018908,0.
 00111882,-0.00002351,0.00048001,-0.00010958,0.00086666,0.00022673,-0.0
 0043597,-0.00017770,0.00643343,-0.00617118,-0.04937488,-0.02248550,0.0
 0433429,-0.00044375,-0.00690921,-0.00532729,0.00043895,-0.01046656,0.0
 0262310,-0.00126324,0.02359956,0.00001004,-0.02171342,0.00413287,0.010
 23198,0.06638901\\0.00000241,-0.00000413,0.00000325,0.00000430,0.00000
 805,0.00000802,0.00000269,-0.00001214,0.00000205,0.00000224,-0.0000014
 6,0.00000279,0.00000590,-0.00000385,0.00000871,0.00000052,-0.00000474,
 0.00000022,0.00000149,0.00000211,0.00000236,0.00000269,0.00000867,0.00
 000440,0.00000788,0.00000610,0.00001236,0.00000423,0.00001297,0.000007
 18,-0.00000164,0.00000043,-0.00000663,-0.00000455,0.00000922,-0.000005
 94,-0.00000691,-0.00001126,-0.00000683,-0.00000915,-0.00000841,-0.0000
 1433,-0.00000639,-0.00000385,-0.00001352,-0.00000572,0.00000229,-0.000
 00410\\\@
 Job cpu time:  0 days  0 hours 47 minutes 54.8 seconds.
 File lengths (MBytes):  RWF=  12259 Int=      0 D2E=      0 Chk=      8 Scr=      1
 Normal termination of Gaussian 09 at Fri Jul  6 17:27:58 2012.
