 Entering Gaussian System, Link 0=g09
 Input=cb.com
 Output=cb.log
 AtFile(1): cb.xyz
            C         -1.97042        0.70506       -0.40465
            C         -1.97042       -0.70506       -0.40465
            C         -0.68031       -1.44372       -0.18123
            C         -0.10443       -1.29879        1.24696
            C         -0.50356        0.00000        1.94357
            C          1.41584       -1.52565        1.27229
            C          2.23706       -0.70478        0.30845
            C          2.23706        0.70478        0.30845
            C          1.41584        1.52565        1.27229
            C         -0.10443        1.29879        1.24696
            C         -0.68031        1.44372       -0.18123
            H         -0.81725       -2.51164       -0.40490
            H          0.06742       -1.08104       -0.90397
            H         -0.54210       -2.10638        1.85650
            H         -0.05995        0.00000        2.95231
            H         -1.59210        0.00000        2.09755
            H          1.61411       -2.58772        1.06377
            H          1.76532       -1.35048        2.30424
            H          1.61411        2.58772        1.06377
            H          1.76532        1.35048        2.30424
            H         -0.54210        2.10638        1.85650
            H          0.06742        1.08104       -0.90397
            H         -0.81725        2.51164       -0.40490
            C         -3.17132       -1.38352       -0.59358
            C         -4.36772       -0.69442       -0.78518
            C         -4.36772        0.69442       -0.78518
            C         -3.17132        1.38352       -0.59358
            H         -3.16682       -2.47443       -0.59242
            H         -5.29556       -1.24450       -0.93443
            H         -5.29556        1.24450       -0.93443
            H         -3.16682        2.47443       -0.59242
            C          3.82106       -0.69423       -1.54619
            C          3.03018       -1.37483       -0.62620
            C          3.03018        1.37483       -0.62620
            C          3.82106        0.69423       -1.54619
            H          4.42800       -1.24931       -2.25951
            H          3.02399       -2.46565       -0.62884
            H          3.02399        2.46565       -0.62884
            H          4.42800        1.24931       -2.25951
 Initial command:
 /share/apps/g09/l1.exe /scratch/marat/Gau-25078.inp -scrdir=/scratch/marat/
 Entering Link 1 = /share/apps/g09/l1.exe PID=     25079.
  
 Copyright (c) 1988,1990,1992,1993,1995,1998,2003,2009,2010,
            Gaussian, Inc.  All Rights Reserved.
  
 This is part of the Gaussian(R) 09 program.  It is based on
 the Gaussian(R) 03 system (copyright 2003, Gaussian, Inc.),
 the Gaussian(R) 98 system (copyright 1998, Gaussian, Inc.),
 the Gaussian(R) 94 system (copyright 1995, Gaussian, Inc.),
 the Gaussian 92(TM) system (copyright 1992, Gaussian, Inc.),
 the Gaussian 90(TM) system (copyright 1990, Gaussian, Inc.),
 the Gaussian 88(TM) system (copyright 1988, Gaussian, Inc.),
 the Gaussian 86(TM) system (copyright 1986, Carnegie Mellon
 University), and the Gaussian 82(TM) system (copyright 1983,
 Carnegie Mellon University). Gaussian is a federally registered
 trademark of Gaussian, Inc.
  
 This software contains proprietary and confidential information,
 including trade secrets, belonging to Gaussian, Inc.
  
 This software is provided under written license and may be
 used, copied, transmitted, or stored only in accord with that
 written license.
  
 The following legend is applicable only to US Government
 contracts under FAR:
  
                    RESTRICTED RIGHTS LEGEND
  
 Use, reproduction and disclosure by the US Government is
 subject to restrictions as set forth in subparagraphs (a)
 and (c) of the Commercial Computer Software - Restricted
 Rights clause in FAR 52.227-19.
  
 Gaussian, Inc.
 340 Quinnipiac St., Bldg. 40, Wallingford CT 06492
  
  
 ---------------------------------------------------------------
 Warning -- This program may not be used in any manner that
 competes with the business of Gaussian, Inc. or will provide
 assistance to any competitor of Gaussian, Inc.  The licensee
 of this program is prohibited from giving any competitor of
 Gaussian, Inc. access to this program.  By using this program,
 the user acknowledges that Gaussian, Inc. is engaged in the
 business of creating and licensing software in the field of
 computational chemistry and represents and warrants to the
 licensee that it is not a competitor of Gaussian, Inc. and that
 it will not use this program in any manner prohibited above.
 ---------------------------------------------------------------
  

 Cite this work as:
 Gaussian 09, Revision B.01,
 M. J. Frisch, G. W. Trucks, H. B. Schlegel, G. E. Scuseria, 
 M. A. Robb, J. R. Cheeseman, G. Scalmani, V. Barone, B. Mennucci, 
 G. A. Petersson, H. Nakatsuji, M. Caricato, X. Li, H. P. Hratchian, 
 A. F. Izmaylov, J. Bloino, G. Zheng, J. L. Sonnenberg, M. Hada, 
 M. Ehara, K. Toyota, R. Fukuda, J. Hasegawa, M. Ishida, T. Nakajima, 
 Y. Honda, O. Kitao, H. Nakai, T. Vreven, J. A. Montgomery, Jr., 
 J. E. Peralta, F. Ogliaro, M. Bearpark, J. J. Heyd, E. Brothers, 
 K. N. Kudin, V. N. Staroverov, T. Keith, R. Kobayashi, J. Normand, 
 K. Raghavachari, A. Rendell, J. C. Burant, S. S. Iyengar, J. Tomasi, 
 M. Cossi, N. Rega, J. M. Millam, M. Klene, J. E. Knox, J. B. Cross, 
 V. Bakken, C. Adamo, J. Jaramillo, R. Gomperts, R. E. Stratmann, 
 O. Yazyev, A. J. Austin, R. Cammi, C. Pomelli, J. W. Ochterski, 
 R. L. Martin, K. Morokuma, V. G. Zakrzewski, G. A. Voth, 
 P. Salvador, J. J. Dannenberg, S. Dapprich, A. D. Daniels, 
 O. Farkas, J. B. Foresman, J. V. Ortiz, J. Cioslowski, 
 and D. J. Fox, Gaussian, Inc., Wallingford CT, 2010.
 
 ******************************************
 Gaussian 09:  EM64L-G09RevB.01 12-Aug-2010
                10-Apr-2012 
 ******************************************
 %nproc=48
 Will use up to   48 processors via shared memory.
 %mem=96Gb
 %chk=cb.chk
 ------------------------------------
 #p mp2/6-311++G(3df,2p) pop(nboread)
 ------------------------------------
 1/38=1/1;
 2/12=2,17=6,18=5,40=1/2;
 3/5=4,6=6,7=1216,11=9,16=1,25=1,30=1/1,2,3;
 4//1;
 5/5=2,38=5/2;
 8/10=2/1;
 9/16=-3/6;
 6/7=2,8=2,9=2,10=2,40=1/1,7;
 99/5=1,9=1/99;
 Leave Link    1 at Tue Apr 10 10:43:58 2012, MaxMem=12884901888 cpu:       4.7
 (Enter /share/apps/g09/l101.exe)


 Symbolic Z-matrix:
 Charge =  0 Multiplicity = 1
 C                    -1.97042   0.70506  -0.40465 
 C                    -1.97042  -0.70506  -0.40465 
 C                    -0.68031  -1.44372  -0.18123 
 C                    -0.10443  -1.29879   1.24696 
 C                    -0.50356   0.        1.94357 
 C                     1.41584  -1.52565   1.27229 
 C                     2.23706  -0.70478   0.30845 
 C                     2.23706   0.70478   0.30845 
 C                     1.41584   1.52565   1.27229 
 C                    -0.10443   1.29879   1.24696 
 C                    -0.68031   1.44372  -0.18123 
 H                    -0.81725  -2.51164  -0.4049 
 H                     0.06742  -1.08104  -0.90397 
 H                    -0.5421   -2.10638   1.8565 
 H                    -0.05995   0.        2.95231 
 H                    -1.5921    0.        2.09755 
 H                     1.61411  -2.58772   1.06377 
 H                     1.76532  -1.35048   2.30424 
 H                     1.61411   2.58772   1.06377 
 H                     1.76532   1.35048   2.30424 
 H                    -0.5421    2.10638   1.8565 
 H                     0.06742   1.08104  -0.90397 
 H                    -0.81725   2.51164  -0.4049 
 C                    -3.17132  -1.38352  -0.59358 
 C                    -4.36772  -0.69442  -0.78518 
 C                    -4.36772   0.69442  -0.78518 
 C                    -3.17132   1.38352  -0.59358 
 H                    -3.16682  -2.47443  -0.59242 
 H                    -5.29556  -1.2445   -0.93443 
 H                    -5.29556   1.2445   -0.93443 
 H                    -3.16682   2.47443  -0.59242 
 C                     3.82106  -0.69423  -1.54619 
 C                     3.03018  -1.37483  -0.6262 
 C                     3.03018   1.37483  -0.6262 
 C                     3.82106   0.69423  -1.54619 
 H                     4.428    -1.24931  -2.25951 
 H                     3.02399  -2.46565  -0.62884 
 H                     3.02399   2.46565  -0.62884 
 H                     4.428     1.24931  -2.25951 
 
 NAtoms=     39 NQM=     39 NQMF=      0 NMic=      0 NMicF=      0 NTot=     39.
                    Isotopes and Nuclear Properties:
 (Nuclear quadrupole moments (NQMom) in fm**2, nuclear magnetic moments (NMagM)
  in nuclear magnetons)

  Atom         1           2           3           4           5           6           7           8           9          10
 IAtWgt=          12          12          12          12          12          12          12          12          12          12
 AtmWgt=  12.0000000  12.0000000  12.0000000  12.0000000  12.0000000  12.0000000  12.0000000  12.0000000  12.0000000  12.0000000
 NucSpn=           0           0           0           0           0           0           0           0           0           0
 AtZEff=   0.0000000   0.0000000   0.0000000   0.0000000   0.0000000   0.0000000   0.0000000   0.0000000   0.0000000   0.0000000
 NQMom=    0.0000000   0.0000000   0.0000000   0.0000000   0.0000000   0.0000000   0.0000000   0.0000000   0.0000000   0.0000000
 NMagM=    0.0000000   0.0000000   0.0000000   0.0000000   0.0000000   0.0000000   0.0000000   0.0000000   0.0000000   0.0000000

  Atom        11          12          13          14          15          16          17          18          19          20
 IAtWgt=          12           1           1           1           1           1           1           1           1           1
 AtmWgt=  12.0000000   1.0078250   1.0078250   1.0078250   1.0078250   1.0078250   1.0078250   1.0078250   1.0078250   1.0078250
 NucSpn=           0           1           1           1           1           1           1           1           1           1
 AtZEff=   0.0000000   0.0000000   0.0000000   0.0000000   0.0000000   0.0000000   0.0000000   0.0000000   0.0000000   0.0000000
 NQMom=    0.0000000   0.0000000   0.0000000   0.0000000   0.0000000   0.0000000   0.0000000   0.0000000   0.0000000   0.0000000
 NMagM=    0.0000000   2.7928460   2.7928460   2.7928460   2.7928460   2.7928460   2.7928460   2.7928460   2.7928460   2.7928460

  Atom        21          22          23          24          25          26          27          28          29          30
 IAtWgt=           1           1           1          12          12          12          12           1           1           1
 AtmWgt=   1.0078250   1.0078250   1.0078250  12.0000000  12.0000000  12.0000000  12.0000000   1.0078250   1.0078250   1.0078250
 NucSpn=           1           1           1           0           0           0           0           1           1           1
 AtZEff=   0.0000000   0.0000000   0.0000000   0.0000000   0.0000000   0.0000000   0.0000000   0.0000000   0.0000000   0.0000000
 NQMom=    0.0000000   0.0000000   0.0000000   0.0000000   0.0000000   0.0000000   0.0000000   0.0000000   0.0000000   0.0000000
 NMagM=    2.7928460   2.7928460   2.7928460   0.0000000   0.0000000   0.0000000   0.0000000   2.7928460   2.7928460   2.7928460

  Atom        31          32          33          34          35          36          37          38          39
 IAtWgt=           1          12          12          12          12           1           1           1           1
 AtmWgt=   1.0078250  12.0000000  12.0000000  12.0000000  12.0000000   1.0078250   1.0078250   1.0078250   1.0078250
 NucSpn=           1           0           0           0           0           1           1           1           1
 AtZEff=   0.0000000   0.0000000   0.0000000   0.0000000   0.0000000   0.0000000   0.0000000   0.0000000   0.0000000
 NQMom=    0.0000000   0.0000000   0.0000000   0.0000000   0.0000000   0.0000000   0.0000000   0.0000000   0.0000000
 NMagM=    2.7928460   0.0000000   0.0000000   0.0000000   0.0000000   2.7928460   2.7928460   2.7928460   2.7928460
 Leave Link  101 at Tue Apr 10 10:43:58 2012, MaxMem=12884901888 cpu:       5.4
 (Enter /share/apps/g09/l202.exe)
                          Input orientation:                          
 ---------------------------------------------------------------------
 Center     Atomic      Atomic             Coordinates (Angstroms)
 Number     Number       Type             X           Y           Z
 ---------------------------------------------------------------------
      1          6           0       -1.970420    0.705060   -0.404650
      2          6           0       -1.970420   -0.705060   -0.404650
      3          6           0       -0.680310   -1.443720   -0.181230
      4          6           0       -0.104430   -1.298790    1.246960
      5          6           0       -0.503560    0.000000    1.943570
      6          6           0        1.415840   -1.525650    1.272290
      7          6           0        2.237060   -0.704780    0.308450
      8          6           0        2.237060    0.704780    0.308450
      9          6           0        1.415840    1.525650    1.272290
     10          6           0       -0.104430    1.298790    1.246960
     11          6           0       -0.680310    1.443720   -0.181230
     12          1           0       -0.817250   -2.511640   -0.404900
     13          1           0        0.067420   -1.081040   -0.903970
     14          1           0       -0.542100   -2.106380    1.856500
     15          1           0       -0.059950    0.000000    2.952310
     16          1           0       -1.592100    0.000000    2.097550
     17          1           0        1.614110   -2.587720    1.063770
     18          1           0        1.765320   -1.350480    2.304240
     19          1           0        1.614110    2.587720    1.063770
     20          1           0        1.765320    1.350480    2.304240
     21          1           0       -0.542100    2.106380    1.856500
     22          1           0        0.067420    1.081040   -0.903970
     23          1           0       -0.817250    2.511640   -0.404900
     24          6           0       -3.171320   -1.383520   -0.593580
     25          6           0       -4.367720   -0.694420   -0.785180
     26          6           0       -4.367720    0.694420   -0.785180
     27          6           0       -3.171320    1.383520   -0.593580
     28          1           0       -3.166820   -2.474430   -0.592420
     29          1           0       -5.295560   -1.244500   -0.934430
     30          1           0       -5.295560    1.244500   -0.934430
     31          1           0       -3.166820    2.474430   -0.592420
     32          6           0        3.821060   -0.694230   -1.546190
     33          6           0        3.030180   -1.374830   -0.626200
     34          6           0        3.030180    1.374830   -0.626200
     35          6           0        3.821060    0.694230   -1.546190
     36          1           0        4.428000   -1.249310   -2.259510
     37          1           0        3.023990   -2.465650   -0.628840
     38          1           0        3.023990    2.465650   -0.628840
     39          1           0        4.428000    1.249310   -2.259510
 ---------------------------------------------------------------------
                    Distance matrix (angstroms):
                    1          2          3          4          5
     1  C    0.000000
     2  C    1.410120   0.000000
     3  C    2.516258   1.503303   0.000000
     4  C    3.197679   2.561689   1.546729   0.000000
     5  C    2.857083   2.857083   2.574945   1.526901   0.000000
     6  C    4.388046   3.866814   2.552112   1.537312   2.542110
     7  C    4.494335   4.267482   3.049076   2.591568   3.268230
     8  C    4.267482   4.494335   3.656075   3.221439   3.268230
     9  C    3.866814   4.388046   3.914553   3.207698   2.542110
    10  C    2.561689   3.197679   3.145270   2.597580   1.526901
    11  C    1.503303   2.516258   2.887440   3.145270   2.574945
    12  H    3.417157   2.143253   1.099652   2.169737   3.452832
    13  H    2.755407   2.131542   1.101358   2.168743   3.098895
    14  H    3.880347   3.019370   2.147222   1.102404   2.108531
    15  H    3.926345   3.926345   3.505460   2.144074   1.101974
    16  H    2.627021   2.627021   2.847547   2.150237   1.099377
    17  H    5.084045   4.306916   2.850109   2.155987   3.457581
    18  H    5.051642   4.659443   3.488174   2.148599   2.664901
    19  H    4.306916   5.084045   4.802801   4.253457   3.457581
    20  H    4.659443   5.051642   4.468358   3.410636   2.664901
    21  H    3.019370   3.880347   4.095687   3.486872   2.108531
    22  H    2.131542   2.755407   2.730543   3.212417   3.098895
    23  H    2.143253   3.417157   3.964045   4.213802   3.452832
    24  C    2.416614   1.392179   2.525626   3.577790   3.932963
    25  C    2.801856   2.427337   3.810931   4.761355   4.781216
    26  C    2.427337   2.801856   4.305042   5.126219   4.781216
    27  C    1.392179   2.416614   3.790574   4.470815   3.932963
    28  H    3.402321   2.144132   2.722898   3.760809   4.432494
    29  H    3.890759   3.410017   4.680548   5.631096   5.726686
    30  H    3.410017   3.890759   5.393920   6.178561   5.726686
    31  H    2.144132   3.402321   4.658724   5.196031   4.432494
    32  C    6.066495   5.902921   4.763106   4.855579   5.600243
    33  C    5.420427   5.050116   3.737711   3.652436   4.580523
    34  C    5.050116   5.420427   4.680807   4.525787   4.580523
    35  C    5.902921   6.066495   5.166844   5.213759   5.600243
    36  H    6.942611   6.684048   5.518322   5.730681   6.599011
    37  H    5.920118   5.300384   3.868661   3.829778   5.014014
    38  H    5.300384   5.920118   5.404199   5.241817   5.014014
    39  H    6.684048   6.942611   6.137303   6.271449   6.599011
                    6          7          8          9         10
     6  C    0.000000
     7  C    1.509045   0.000000
     8  C    2.564802   1.409560   0.000000
     9  C    3.051300   2.564802   1.509045   0.000000
    10  C    3.207698   3.221439   2.591568   1.537312   0.000000
    11  C    3.914553   3.656075   3.049076   2.552112   1.546729
    12  H    2.961728   3.619727   4.492553   4.909111   4.213802
    13  H    2.598465   2.513737   3.060466   3.653653   3.212417
    14  H    2.124165   3.476301   4.245328   4.167310   3.486872
    15  H    2.707034   3.572529   3.572529   2.707034   2.144074
    16  H    3.472228   4.284864   4.284864   3.472228   2.150237
    17  H    1.100356   2.122272   3.434986   4.123421   4.253457
    18  H    1.103513   2.150034   2.903414   3.075578   3.410636
    19  H    4.123421   3.434986   2.122272   1.100356   2.155987
    20  H    3.075578   2.903414   2.150034   1.103513   2.148599
    21  H    4.167310   4.245328   3.476301   2.124165   1.102404
    22  H    3.653653   3.060466   2.513737   2.598465   2.168743
    23  H    4.909111   4.492553   3.619727   2.961728   2.169737
    24  C    4.954161   5.524936   5.867302   5.743412   4.470815
    25  C    6.194650   6.694718   6.839364   6.527745   5.126219
    26  C    6.527745   6.839364   6.694718   6.194650   4.761355
    27  C    5.743412   5.867302   5.524936   4.954161   3.577790
    28  H    5.037668   5.757182   6.334103   6.362276   5.196031
    29  H    7.070470   7.653523   7.879391   7.588559   6.178561
    30  H    7.588559   7.879391   7.653523   7.070470   5.631096
    31  H    6.362276   6.334103   5.757182   5.037668   3.760809
    32  C    3.797390   2.439028   2.811756   4.319349   5.213759
    33  C    2.496619   1.396989   2.413998   3.824022   4.525787
    34  C    3.824022   2.413998   1.396989   2.496619   3.652436
    35  C    4.319349   2.811756   2.439028   3.797390   4.855579
    36  H    4.650063   3.419232   3.900398   5.408061   6.271449
    37  H    2.661586   2.144396   3.398440   4.704351   5.241817
    38  H    4.704351   3.398440   2.144396   2.661586   3.829778
    39  H    5.408061   3.900398   3.419232   4.650063   5.730681
                   11         12         13         14         15
    11  C    0.000000
    12  H    3.964045   0.000000
    13  H    2.730543   1.754517   0.000000
    14  H    4.095687   2.313844   3.007163   0.000000
    15  H    3.505460   4.260598   4.006965   2.422830   0.000000
    16  H    2.847547   3.629185   3.596078   2.365891   1.754451
    17  H    4.802801   2.841530   2.921358   2.347201   3.614603
    18  H    4.468358   3.918852   3.639790   2.469017   2.361229
    19  H    2.850109   5.837120   4.441177   5.226111   3.614603
    20  H    3.488174   5.378204   4.368955   4.180256   2.361229
    21  H    2.147222   5.149344   4.260441   4.212760   2.422830
    22  H    1.101358   3.733505   2.162080   4.260441   4.006965
    23  H    1.099652   5.023280   3.733505   5.149344   4.260598
    24  C    3.790574   2.617231   3.267610   3.665817   4.916105
    25  C    4.305042   4.006587   4.453544   4.858752   5.745253
    26  C    3.810931   4.798882   4.778790   5.427552   5.745253
    27  C    2.525626   4.555164   4.081646   5.009500   4.916105
    28  H    4.658724   2.357335   3.535379   3.608577   5.323585
    29  H    5.393920   4.684155   5.365557   5.579203   6.638309
    30  H    4.680548   5.868922   5.845564   6.450819   6.638309
    31  H    2.722898   5.515119   4.816507   5.819810   5.323585
    32  C    5.166844   5.110718   3.827778   5.710484   5.981697
    33  C    4.680807   4.017963   2.990220   4.411366   4.923900
    34  C    3.737711   5.473239   3.858290   5.571697   4.923900
    35  C    4.763106   5.752744   4.201648   6.201522   5.981697
    36  H    6.137303   5.704884   4.569514   6.509839   6.990389
    37  H    5.404199   3.848037   3.276301   4.361535   5.330549
    38  H    3.868661   6.291160   4.625582   6.308516   5.330549
    39  H    5.518322   6.715428   5.126663   7.273520   6.990389
                   16         17         18         19         20
    16  H    0.000000
    17  H    4.247915   0.000000
    18  H    3.624746   1.758520   0.000000
    19  H    4.247915   5.175440   4.131713   0.000000
    20  H    3.624746   4.131713   2.700960   1.758520   0.000000
    21  H    2.365891   5.226111   4.180256   2.347201   2.469017
    22  H    3.596078   4.441177   4.368955   2.921358   3.639790
    23  H    3.629185   5.837120   5.378204   2.841530   3.918852
    24  C    3.413245   5.205502   5.724410   6.435674   6.343700
    25  C    4.061578   6.541062   6.898486   7.069183   7.165215
    26  C    4.061578   7.069183   7.165215   6.541062   6.898486
    27  C    3.413245   6.435674   6.343700   5.205502   5.724410
    28  H    3.979759   5.060938   5.829229   7.157208   6.880885
    29  H    4.945432   7.317143   7.768928   8.149985   8.190173
    30  H    4.945432   8.149985   8.190173   7.317143   7.768928
    31  H    3.979759   7.157208   6.880885   5.060938   5.829229
    32  C    6.562096   3.907406   4.413903   4.738535   4.820033
    33  C    5.538451   2.516417   3.191856   4.534651   4.196983
    34  C    5.538451   4.534651   4.196983   2.516417   3.191856
    35  C    6.562096   4.738535   4.820033   3.907406   4.413903
    36  H    7.535672   4.555602   5.284687   5.803875   5.888683
    37  H    5.900925   2.206262   3.380948   5.512644   4.974943
    38  H    5.900925   5.512644   4.974943   2.206262   3.380948
    39  H    7.535672   5.803875   5.888683   4.555602   5.284687
                   21         22         23         24         25
    21  H    0.000000
    22  H    3.007163   0.000000
    23  H    2.313844   1.754517   0.000000
    24  C    5.009500   4.081646   4.555164   0.000000
    25  C    5.427552   4.778790   4.798882   1.393895   0.000000
    26  C    4.858752   4.453544   4.006587   2.405394   1.388840
    27  C    3.665817   3.267610   2.617231   2.767040   2.405394
    28  H    5.819810   4.816507   5.515119   1.090920   2.155865
    29  H    6.450819   5.845564   5.868922   2.155899   1.088922
    30  H    5.579203   5.365557   4.684155   3.396331   2.154663
    31  H    3.608577   3.535379   2.357335   3.857953   3.394249
    32  C    6.201522   4.201648   5.752744   7.090555   8.224066
    33  C    5.571697   3.858290   5.473239   6.201592   7.430825
    34  C    4.411366   2.990220   4.017963   6.787353   7.683488
    35  C    5.710484   3.827778   5.110718   7.356486   8.340480
    36  H    7.273520   5.126663   6.715428   7.780938   8.935672
    37  H    6.308516   4.625582   6.291160   6.289206   7.602570
    38  H    4.361535   3.276301   3.848037   7.293779   8.040389
    39  H    6.509839   4.569514   5.704884   8.213208   9.127783
                   26         27         28         29         30
    26  C    0.000000
    27  C    1.393895   0.000000
    28  H    3.394249   3.857953   0.000000
    29  H    2.154663   3.396331   2.482183   0.000000
    30  H    1.088922   2.155899   4.298714   2.489000   0.000000
    31  H    2.155865   1.090920   4.948860   4.298714   2.482183
    32  C    8.340480   7.356486   7.273875   9.153677   9.340540
    33  C    7.683488   6.787353   6.293892   8.332463   8.733490
    34  C    7.430825   6.201592   7.295255   8.733490   8.332463
    35  C    8.224066   7.090555   7.731788   9.340540   9.153677
    36  H    9.127783   8.213208   7.871556   9.813434  10.125342
    37  H    8.040389   7.293779   6.190923   8.414244   9.114467
    38  H    7.602570   6.289206   7.920344   9.114467   8.414244
    39  H    8.935672   7.780938   8.621295  10.125342   9.813434
                   31         32         33         34         35
    31  H    0.000000
    32  C    7.731788   0.000000
    33  C    7.295255   1.391075   0.000000
    34  C    6.293892   2.398517   2.749660   0.000000
    35  C    7.273875   1.388460   2.398517   1.391075   0.000000
    36  H    8.621295   1.088722   2.153452   3.392302   2.157440
    37  H    7.920344   2.148204   1.090841   3.840486   3.385512
    38  H    6.190923   3.385512   3.840486   1.090841   2.148204
    39  H    7.871556   2.157440   3.392302   2.153452   1.088722
                   36         37         38         39
    36  H    0.000000
    37  H    2.471803   0.000000
    38  H    4.293164   4.931300   0.000000
    39  H    2.498620   4.293164   2.471803   0.000000
 Stoichiometry    C19H20
 Framework group  CS[SG(CH2),X(C18H18)]
 Deg. of freedom    57
 Full point group                 CS      NOp   2
 Largest Abelian subgroup         CS      NOp   2
 Largest concise Abelian subgroup CS      NOp   2
                         Standard orientation:                         
 ---------------------------------------------------------------------
 Center     Atomic      Atomic             Coordinates (Angstroms)
 Number     Number       Type             X           Y           Z
 ---------------------------------------------------------------------
      1          6           0        0.404651    1.970421    0.705060
      2          6           0        0.404651    1.970421   -0.705060
      3          6           0        0.181231    0.680311   -1.443720
      4          6           0       -1.246959    0.104431   -1.298790
      5          6           0       -1.943569    0.503561    0.000000
      6          6           0       -1.272289   -1.415839   -1.525650
      7          6           0       -0.308449   -2.237059   -0.704780
      8          6           0       -0.308449   -2.237059    0.704780
      9          6           0       -1.272289   -1.415839    1.525650
     10          6           0       -1.246959    0.104431    1.298790
     11          6           0        0.181231    0.680311    1.443720
     12          1           0        0.404901    0.817251   -2.511640
     13          1           0        0.903971   -0.067419   -1.081040
     14          1           0       -1.856499    0.542101   -2.106380
     15          1           0       -2.952309    0.059951    0.000000
     16          1           0       -2.097549    1.592101    0.000000
     17          1           0       -1.063769   -1.614109   -2.587720
     18          1           0       -2.304239   -1.765319   -1.350480
     19          1           0       -1.063769   -1.614109    2.587720
     20          1           0       -2.304239   -1.765319    1.350480
     21          1           0       -1.856499    0.542101    2.106380
     22          1           0        0.903971   -0.067419    1.081040
     23          1           0        0.404901    0.817251    2.511640
     24          6           0        0.593581    3.171321   -1.383520
     25          6           0        0.785181    4.367721   -0.694420
     26          6           0        0.785181    4.367721    0.694420
     27          6           0        0.593581    3.171321    1.383520
     28          1           0        0.592421    3.166821   -2.474430
     29          1           0        0.934431    5.295561   -1.244500
     30          1           0        0.934431    5.295561    1.244500
     31          1           0        0.592421    3.166821    2.474430
     32          6           0        1.546191   -3.821059   -0.694230
     33          6           0        0.626201   -3.030179   -1.374830
     34          6           0        0.626201   -3.030179    1.374830
     35          6           0        1.546191   -3.821059    0.694230
     36          1           0        2.259511   -4.427999   -1.249310
     37          1           0        0.628841   -3.023989   -2.465650
     38          1           0        0.628841   -3.023989    2.465650
     39          1           0        2.259511   -4.427999    1.249310
 ---------------------------------------------------------------------
 Rotational constants (GHZ):      0.8100808      0.2573609      0.2461339
 Leave Link  202 at Tue Apr 10 10:43:58 2012, MaxMem=12884901888 cpu:       0.4
 (Enter /share/apps/g09/l301.exe)
 Standard basis: 6-311++G(3df,2p) (5D, 7F)
 Ernie: Thresh=  0.10000D-02 Tol=  0.10000D-05 Strict=F.
 There are   483 symmetry adapted basis functions of A'  symmetry.
 There are   458 symmetry adapted basis functions of A"  symmetry.
 Integral buffers will be    131072 words long.
 Raffenetti 1 integral format.
 Two-electron integral symmetry is turned on.
   941 basis functions,  1342 primitive gaussians,  1055 cartesian basis functions
    67 alpha electrons       67 beta electrons
       nuclear repulsion energy      1407.9592330938 Hartrees.
 IExCor=    0 DFT=F Ex=HF Corr=None ExCW=0 ScaHFX=  1.000000
 ScaDFX=  1.000000  1.000000  1.000000  1.000000 ScalE2=  1.000000  1.000000
 IRadAn=      0 IRanWt=     -1 IRanGd=            0 ICorTp=0
 NAtoms=   39 NActive=   39 NUniq=   21 SFac= 3.45D+00 NAtFMM=   50 NAOKFM=F Big=F
 Leave Link  301 at Tue Apr 10 10:43:59 2012, MaxMem=12884901888 cpu:       4.0
 (Enter /share/apps/g09/l302.exe)
 NPDir=0 NMtPBC=     1 NCelOv=     1 NCel=       1 NClECP=     1 NCelD=      1
         NCelK=      1 NCelE2=     1 NClLst=     1 CellRange=     0.0.
 One-electron integrals computed using PRISM.
 One-electron integral symmetry used in STVInt
 NBasis=   941 RedAO= T  NBF=   483   458
 NBsUse=   931 1.00D-06 NBFU=   481   450
 Leave Link  302 at Tue Apr 10 10:44:02 2012, MaxMem=12884901888 cpu:     182.9
 (Enter /share/apps/g09/l303.exe)
 DipDrv:  MaxL=1.
 Leave Link  303 at Tue Apr 10 10:44:03 2012, MaxMem=12884901888 cpu:      23.8
 (Enter /share/apps/g09/l401.exe)
 Harris functional with IExCor=  205 diagonalized for initial guess.
 ExpMin= 3.60D-02 ExpMax= 4.56D+03 ExpMxC= 6.82D+02 IAcc=3 IRadAn=         0 AccDes= 0.00D+00
 HarFok:  IExCor=  205 AccDes= 0.00D+00 IRadAn=         0 IDoV= 1
 ScaDFX=  1.000000  1.000000  1.000000  1.000000
 FoFCou: FMM=F IPFlag=           0 FMFlag=      100000 FMFlg1=           0
         NFxFlg=           0 DoJE=T BraDBF=F KetDBF=T FulRan=T
         Omega=  0.000000  0.000000  1.000000  0.000000  0.000000 ICntrl=     500 IOpCl=  0
         NMat0=    1 NMatS0=    1 NMatT0=    0 NMatD0=    1 NMtDS0=    0 NMtDT0=    0
         I1Cent=           4 NGrid=           0.
 Petite list used in FoFCou.
 Harris En= -732.677465328913    
 Initial guess orbital symmetries:
       Occupied  (A') (A") (A') (A') (A") (A") (A') (A") (A') (A")
                 (A") (A') (A') (A') (A") (A") (A') (A') (A") (A')
                 (A') (A') (A") (A') (A") (A') (A") (A") (A') (A')
                 (A") (A') (A') (A") (A") (A') (A') (A') (A') (A')
                 (A') (A") (A') (A") (A') (A") (A") (A") (A') (A")
                 (A') (A") (A") (A') (A') (A') (A") (A') (A") (A')
                 (A') (A') (A") (A") (A") (A') (A')
       Virtual   (A") (A') (A') (A") (A') (A') (A") (A') (A') (A")
                 (A") (A') (A") (A') (A") (A') (A') (A') (A") (A')
                 (A") (A') (A") (A') (A") (A') (A") (A') (A') (A")
                 (A') (A') (A') (A') (A") (A") (A") (A') (A") (A")
                 (A') (A') (A') (A") (A') (A") (A') (A") (A') (A')
                 (A") (A') (A") (A') (A") (A') (A") (A') (A') (A")
                 (A') (A") (A') (A") (A') (A") (A') (A") (A') (A")
                 (A') (A") (A') (A") (A') (A") (A') (A") (A') (A')
                 (A") (A") (A') (A') (A') (A") (A") (A") (A') (A')
                 (A") (A') (A") (A') (A') (A") (A') (A") (A') (A")
                 (A') (A") (A") (A') (A') (A") (A') (A") (A') (A")
                 (A') (A") (A") (A') (A") (A') (A') (A") (A') (A')
                 (A") (A") (A') (A") (A') (A') (A") (A") (A') (A')
                 (A") (A") (A') (A") (A') (A') (A') (A') (A") (A')
                 (A") (A') (A') (A') (A") (A") (A') (A") (A') (A")
                 (A') (A") (A') (A") (A") (A') (A') (A") (A") (A')
                 (A') (A") (A') (A") (A') (A") (A') (A") (A") (A')
                 (A") (A') (A') (A") (A') (A") (A') (A') (A') (A")
                 (A") (A') (A") (A') (A") (A') (A") (A") (A') (A')
                 (A") (A") (A') (A') (A") (A") (A') (A') (A") (A')
                 (A") (A") (A') (A') (A') (A") (A") (A') (A") (A')
                 (A") (A') (A') (A") (A") (A') (A') (A") (A') (A")
                 (A') (A") (A') (A") (A') (A') (A") (A") (A') (A')
                 (A') (A") (A") (A') (A') (A") (A") (A') (A") (A')
                 (A') (A") (A') (A") (A') (A") (A') (A") (A') (A")
                 (A') (A") (A') (A') (A") (A") (A') (A') (A") (A')
                 (A") (A") (A") (A') (A") (A') (A') (A") (A") (A')
                 (A') (A') (A") (A") (A') (A") (A') (A') (A") (A')
                 (A") (A') (A") (A") (A") (A') (A") (A') (A') (A")
                 (A') (A") (A') (A") (A") (A") (A') (A') (A") (A')
                 (A") (A') (A") (A') (A') (A") (A') (A") (A') (A')
                 (A") (A") (A') (A") (A') (A") (A") (A') (A') (A")
                 (A') (A") (A') (A") (A') (A') (A") (A") (A') (A")
                 (A') (A') (A") (A') (A") (A') (A') (A") (A') (A')
                 (A") (A") (A') (A") (A') (A') (A') (A") (A') (A")
                 (A") (A') (A') (A") (A') (A') (A") (A") (A") (A')
                 (A') (A") (A") (A') (A') (A") (A') (A") (A") (A')
                 (A") (A') (A") (A') (A') (A") (A') (A") (A') (A")
                 (A') (A') (A") (A') (A") (A') (A') (A') (A") (A")
                 (A') (A") (A") (A') (A') (A") (A') (A") (A") (A")
                 (A') (A") (A') (A') (A') (A') (A") (A") (A') (A")
                 (A') (A") (A") (A') (A') (A") (A') (A") (A') (A")
                 (A') (A") (A') (A") (A') (A") (A") (A') (A") (A')
                 (A') (A") (A') (A") (A") (A') (A') (A") (A') (A")
                 (A') (A") (A') (A") (A') (A") (A") (A") (A') (A")
                 (A') (A") (A") (A') (A") (A') (A") (A') (A") (A')
                 (A") (A') (A') (A") (A') (A") (A") (A') (A') (A")
                 (A") (A') (A") (A") (A') (A") (A') (A") (A") (A')
                 (A') (A") (A') (A') (A') (A') (A") (A') (A") (A')
                 (A') (A") (A') (A") (A') (A') (A") (A") (A') (A')
                 (A") (A') (A") (A') (A") (A') (A') (A") (A") (A')
                 (A") (A') (A") (A') (A') (A") (A") (A') (A') (A")
                 (A') (A") (A') (A") (A') (A') (A") (A') (A') (A")
                 (A') (A") (A") (A') (A') (A") (A') (A") (A') (A")
                 (A') (A') (A') (A") (A") (A') (A') (A") (A') (A")
                 (A') (A') (A') (A") (A") (A') (A") (A') (A") (A")
                 (A') (A") (A') (A') (A") (A") (A') (A") (A') (A')
                 (A") (A') (A") (A") (A') (A') (A') (A") (A") (A')
                 (A') (A") (A') (A") (A') (A') (A") (A') (A") (A")
                 (A') (A") (A") (A') (A") (A') (A") (A") (A") (A")
                 (A') (A") (A') (A') (A') (A") (A') (A') (A") (A')
                 (A") (A') (A") (A") (A") (A') (A') (A") (A') (A")
                 (A") (A') (A') (A") (A') (A") (A') (A") (A') (A')
                 (A") (A") (A') (A") (A') (A") (A') (A') (A") (A")
                 (A') (A") (A') (A") (A") (A') (A') (A") (A') (A")
                 (A") (A') (A') (A') (A") (A') (A") (A") (A') (A")
                 (A') (A") (A") (A") (A') (A') (A") (A') (A") (A')
                 (A') (A") (A') (A') (A") (A") (A') (A") (A") (A')
                 (A") (A') (A") (A') (A') (A") (A") (A') (A") (A')
                 (A") (A') (A') (A") (A") (A') (A") (A") (A') (A")
                 (A") (A') (A') (A") (A') (A") (A") (A") (A') (A")
                 (A') (A") (A") (A') (A") (A") (A") (A') (A') (A")
                 (A") (A') (A") (A') (A') (A") (A') (A") (A') (A")
                 (A") (A') (A") (A') (A') (A") (A') (A') (A') (A")
                 (A") (A') (A') (A") (A") (A") (A") (A") (A") (A")
                 (A') (A') (A") (A') (A") (A') (A') (A') (A') (A')
                 (A') (A") (A') (A") (A") (A") (A') (A") (A') (A")
                 (A') (A') (A') (A") (A') (A") (A") (A') (A") (A')
                 (A") (A") (A") (A') (A") (A') (A") (A") (A') (A')
                 (A') (A") (A') (A") (A") (A') (A") (A') (A') (A")
                 (A') (A") (A") (A") (A") (A') (A") (A') (A') (A")
                 (A') (A") (A') (A') (A') (A') (A") (A") (A") (A')
                 (A') (A") (A') (A') (A') (A") (A") (A") (A") (A')
                 (A') (A') (A") (A") (A') (A') (A") (A") (A') (A")
                 (A') (A") (A") (A") (A") (A') (A') (A') (A') (A")
                 (A') (A") (A') (A") (A") (A") (A') (A') (A") (A")
                 (A') (A') (A") (A")
 The electronic state of the initial guess is 1-A'.
 Leave Link  401 at Tue Apr 10 10:44:11 2012, MaxMem=12884901888 cpu:     372.4
 (Enter /share/apps/g09/l502.exe)
 Closed shell SCF:
 Requested convergence on RMS density matrix=1.00D-08 within 128 cycles.
 Requested convergence on MAX density matrix=1.00D-06.
 Requested convergence on             energy=1.00D-06.
 No special actions if energy rises.
 Using DIIS extrapolation, IDIIS=  1040.
 Integral symmetry usage will be decided dynamically.
 IEnd=     3416733 IEndB=     3416733 NGot= 12884901888 MDV= 12882615876
 LenX= 12882615876 LenY= 12881501796
 Fock matrices will be formed incrementally for  20 cycles.

 Cycle   1  Pass 0  IDiag  1:
 FoFCou: FMM=F IPFlag=           0 FMFlag=      100000 FMFlg1=           0
         NFxFlg=           0 DoJE=F BraDBF=F KetDBF=F FulRan=T
         Omega=  0.000000  0.000000  1.000000  0.000000  0.000000 ICntrl=       0 IOpCl=  0
         NMat0=    1 NMatS0=    1 NMatT0=    0 NMatD0=    1 NMtDS0=    0 NMtDT0=    0
         I1Cent=           0 NGrid=           0.
 Petite list used in FoFCou.
 E= -730.486569283567    
 DIIS: error= 2.81D-02 at cycle   1 NSaved=   1.
 NSaved= 1 IEnMin= 1 EnMin= -730.486569283567     IErMin= 1 ErrMin= 2.81D-02
 ErrMax= 2.81D-02 EMaxC= 1.00D-01 BMatC= 1.59D+00 BMatP= 1.59D+00
 IDIUse=3 WtCom= 7.19D-01 WtEn= 2.81D-01
 Coeff-Com:  0.100D+01
 Coeff-En:   0.100D+01
 Coeff:      0.100D+01
 Gap=     0.434 Goal=   None    Shift=    0.000
 GapD=    0.434 DampG=2.000 DampE=0.500 DampFc=1.0000 IDamp=-1.
 RMSDP=6.96D-03 MaxDP=8.56D-01              OVMax= 1.50D-01

 Cycle   2  Pass 0  IDiag  1:
 RMSU=  2.84D-03    CP:  6.16D-01
 E= -731.217506554859     Delta-E=       -0.730937271292 Rises=F Damp=F
 DIIS: error= 1.22D-02 at cycle   2 NSaved=   2.
 NSaved= 2 IEnMin= 2 EnMin= -731.217506554859     IErMin= 2 ErrMin= 1.22D-02
 ErrMax= 1.22D-02 EMaxC= 1.00D-01 BMatC= 1.55D-01 BMatP= 1.59D+00
 IDIUse=3 WtCom= 8.78D-01 WtEn= 1.22D-01
 Coeff-Com:  0.151D+00 0.849D+00
 Coeff-En:   0.000D+00 0.100D+01
 Coeff:      0.133D+00 0.867D+00
 Gap=     0.393 Goal=   None    Shift=    0.000
 RMSDP=3.17D-03 MaxDP=1.68D-01 DE=-7.31D-01 OVMax= 6.46D-02

 Cycle   3  Pass 0  IDiag  1:
 RMSU=  1.63D-03    CP:  7.06D-01  5.72D-01
 E= -731.342678277900     Delta-E=       -0.125171723042 Rises=F Damp=F
 DIIS: error= 6.60D-03 at cycle   3 NSaved=   3.
 NSaved= 3 IEnMin= 3 EnMin= -731.342678277900     IErMin= 3 ErrMin= 6.60D-03
 ErrMax= 6.60D-03 EMaxC= 1.00D-01 BMatC= 2.66D-02 BMatP= 1.55D-01
 IDIUse=3 WtCom= 9.34D-01 WtEn= 6.60D-02
 Coeff-Com: -0.136D-01 0.265D+00 0.748D+00
 Coeff-En:   0.000D+00 0.000D+00 0.100D+01
 Coeff:     -0.127D-01 0.248D+00 0.765D+00
 Gap=     0.343 Goal=   None    Shift=    0.000
 RMSDP=1.17D-03 MaxDP=8.64D-02 DE=-1.25D-01 OVMax= 2.96D-02

 Cycle   4  Pass 0  IDiag  1:
 RMSU=  4.04D-04    CP:  6.66D-01  6.90D-01  7.04D-01
 E= -731.367053706401     Delta-E=       -0.024375428501 Rises=F Damp=F
 DIIS: error= 1.29D-03 at cycle   4 NSaved=   4.
 NSaved= 4 IEnMin= 4 EnMin= -731.367053706401     IErMin= 4 ErrMin= 1.29D-03
 ErrMax= 1.29D-03 EMaxC= 1.00D-01 BMatC= 1.82D-03 BMatP= 2.66D-02
 IDIUse=3 WtCom= 9.87D-01 WtEn= 1.29D-02
 Coeff-Com: -0.104D-01 0.527D-01 0.262D+00 0.696D+00
 Coeff-En:   0.000D+00 0.000D+00 0.000D+00 0.100D+01
 Coeff:     -0.102D-01 0.520D-01 0.259D+00 0.700D+00
 Gap=     0.344 Goal=   None    Shift=    0.000
 RMSDP=2.25D-04 MaxDP=2.40D-02 DE=-2.44D-02 OVMax= 1.07D-02

 Cycle   5  Pass 0  IDiag  1:
 RMSU=  1.06D-04    CP:  6.66D-01  6.87D-01  7.64D-01  8.33D-01
 E= -731.368858848663     Delta-E=       -0.001805142262 Rises=F Damp=F
 DIIS: error= 2.74D-04 at cycle   5 NSaved=   5.
 NSaved= 5 IEnMin= 5 EnMin= -731.368858848663     IErMin= 5 ErrMin= 2.74D-04
 ErrMax= 2.74D-04 EMaxC= 1.00D-01 BMatC= 1.02D-04 BMatP= 1.82D-03
 IDIUse=3 WtCom= 9.97D-01 WtEn= 2.74D-03
 Coeff-Com: -0.389D-03-0.147D-01-0.283D-01 0.130D+00 0.914D+00
 Coeff-En:   0.000D+00 0.000D+00 0.000D+00 0.000D+00 0.100D+01
 Coeff:     -0.388D-03-0.147D-01-0.282D-01 0.129D+00 0.914D+00
 Gap=     0.344 Goal=   None    Shift=    0.000
 RMSDP=6.35D-05 MaxDP=5.44D-03 DE=-1.81D-03 OVMax= 2.55D-03

 Cycle   6  Pass 0  IDiag  1:
 RMSU=  3.16D-05    CP:  6.65D-01  6.88D-01  7.72D-01  8.98D-01  9.68D-01
 E= -731.368992075595     Delta-E=       -0.000133226932 Rises=F Damp=F
 DIIS: error= 7.32D-05 at cycle   6 NSaved=   6.
 NSaved= 6 IEnMin= 6 EnMin= -731.368992075595     IErMin= 6 ErrMin= 7.32D-05
 ErrMax= 7.32D-05 EMaxC= 1.00D-01 BMatC= 6.56D-06 BMatP= 1.02D-04
 IDIUse=1 WtCom= 1.00D+00 WtEn= 0.00D+00
 Coeff-Com:  0.893D-03-0.819D-02-0.304D-01-0.457D-01 0.136D+00 0.947D+00
 Coeff:      0.893D-03-0.819D-02-0.304D-01-0.457D-01 0.136D+00 0.947D+00
 Gap=     0.344 Goal=   None    Shift=    0.000
 RMSDP=2.25D-05 MaxDP=1.98D-03 DE=-1.33D-04 OVMax= 9.05D-04

 Cycle   7  Pass 0  IDiag  1:
 RMSU=  8.53D-06    CP:  6.65D-01  6.88D-01  7.74D-01  9.11D-01  1.08D+00
                    CP:  1.11D+00
 E= -731.369002781410     Delta-E=       -0.000010705814 Rises=F Damp=F
 DIIS: error= 1.81D-05 at cycle   7 NSaved=   7.
 NSaved= 7 IEnMin= 7 EnMin= -731.369002781410     IErMin= 7 ErrMin= 1.81D-05
 ErrMax= 1.81D-05 EMaxC= 1.00D-01 BMatC= 3.72D-07 BMatP= 6.56D-06
 IDIUse=1 WtCom= 1.00D+00 WtEn= 0.00D+00
 Coeff-Com:  0.207D-03-0.111D-02-0.488D-02-0.152D-01-0.224D-01 0.191D+00
 Coeff-Com:  0.852D+00
 Coeff:      0.207D-03-0.111D-02-0.488D-02-0.152D-01-0.224D-01 0.191D+00
 Coeff:      0.852D+00
 Gap=     0.344 Goal=   None    Shift=    0.000
 RMSDP=3.70D-06 MaxDP=3.01D-04 DE=-1.07D-05 OVMax= 1.88D-04

 Initial convergence to 1.0D-05 achieved.  Increase integral accuracy.
 Cycle   8  Pass 1  IDiag  1:
 E= -731.369003400599     Delta-E=       -0.000000619189 Rises=F Damp=F
 DIIS: error= 7.83D-06 at cycle   1 NSaved=   1.
 NSaved= 1 IEnMin= 1 EnMin= -731.369003400599     IErMin= 1 ErrMin= 7.83D-06
 ErrMax= 7.83D-06 EMaxC= 1.00D-01 BMatC= 2.80D-08 BMatP= 2.80D-08
 IDIUse=1 WtCom= 1.00D+00 WtEn= 0.00D+00
 Coeff-Com:  0.100D+01
 Coeff:      0.100D+01
 Gap=     0.344 Goal=   None    Shift=    0.000
 RMSDP=3.70D-06 MaxDP=3.01D-04 DE=-6.19D-07 OVMax= 1.30D-04

 Cycle   9  Pass 1  IDiag  1:
 RMSU=  1.28D-06    CP:  1.00D+00
 E= -731.369003495898     Delta-E=       -0.000000095299 Rises=F Damp=F
 DIIS: error= 5.20D-06 at cycle   2 NSaved=   2.
 NSaved= 2 IEnMin= 2 EnMin= -731.369003495898     IErMin= 2 ErrMin= 5.20D-06
 ErrMax= 5.20D-06 EMaxC= 1.00D-01 BMatC= 9.57D-09 BMatP= 2.80D-08
 IDIUse=1 WtCom= 1.00D+00 WtEn= 0.00D+00
 Coeff-Com:  0.137D+00 0.863D+00
 Coeff:      0.137D+00 0.863D+00
 Gap=     0.344 Goal=   None    Shift=    0.000
 RMSDP=5.68D-07 MaxDP=6.21D-05 DE=-9.53D-08 OVMax= 7.24D-05

 Cycle  10  Pass 1  IDiag  1:
 RMSU=  3.27D-07    CP:  1.00D+00  1.18D+00
 E= -731.369003526658     Delta-E=       -0.000000030760 Rises=F Damp=F
 DIIS: error= 3.14D-06 at cycle   3 NSaved=   3.
 NSaved= 3 IEnMin= 3 EnMin= -731.369003526658     IErMin= 3 ErrMin= 3.14D-06
 ErrMax= 3.14D-06 EMaxC= 1.00D-01 BMatC= 3.22D-09 BMatP= 9.57D-09
 IDIUse=1 WtCom= 1.00D+00 WtEn= 0.00D+00
 Coeff-Com: -0.399D+00-0.388D-01 0.144D+01
 Coeff:     -0.399D+00-0.388D-01 0.144D+01
 Gap=     0.344 Goal=   None    Shift=    0.000
 RMSDP=8.00D-07 MaxDP=9.36D-05 DE=-3.08D-08 OVMax= 1.04D-04

 Cycle  11  Pass 1  IDiag  1:
 RMSU=  2.50D-07    CP:  1.00D+00  1.54D+00  1.68D+00
 E= -731.369003549156     Delta-E=       -0.000000022499 Rises=F Damp=F
 DIIS: error= 1.11D-06 at cycle   4 NSaved=   4.
 NSaved= 4 IEnMin= 4 EnMin= -731.369003549156     IErMin= 4 ErrMin= 1.11D-06
 ErrMax= 1.11D-06 EMaxC= 1.00D-01 BMatC= 3.82D-10 BMatP= 3.22D-09
 IDIUse=1 WtCom= 1.00D+00 WtEn= 0.00D+00
 Coeff-Com: -0.434D-01-0.909D-01 0.996D-01 0.103D+01
 Coeff:     -0.434D-01-0.909D-01 0.996D-01 0.103D+01
 Gap=     0.344 Goal=   None    Shift=    0.000
 RMSDP=1.84D-07 MaxDP=1.79D-05 DE=-2.25D-08 OVMax= 2.98D-05

 Cycle  12  Pass 1  IDiag  1:
 RMSU=  8.05D-08    CP:  1.00D+00  1.55D+00  1.89D+00  1.27D+00
 E= -731.369003551385     Delta-E=       -0.000000002228 Rises=F Damp=F
 DIIS: error= 3.65D-07 at cycle   5 NSaved=   5.
 NSaved= 5 IEnMin= 5 EnMin= -731.369003551385     IErMin= 5 ErrMin= 3.65D-07
 ErrMax= 3.65D-07 EMaxC= 1.00D-01 BMatC= 9.97D-11 BMatP= 3.82D-10
 IDIUse=1 WtCom= 1.00D+00 WtEn= 0.00D+00
 Coeff-Com:  0.133D+00 0.433D-03-0.488D+00 0.184D+00 0.117D+01
 Coeff:      0.133D+00 0.433D-03-0.488D+00 0.184D+00 0.117D+01
 Gap=     0.344 Goal=   None    Shift=    0.000
 RMSDP=1.40D-07 MaxDP=1.23D-05 DE=-2.23D-09 OVMax= 2.04D-05

 Cycle  13  Pass 1  IDiag  1:
 RMSU=  4.27D-08    CP:  1.00D+00  1.55D+00  2.00D+00  1.53D+00  1.47D+00
 E= -731.369003551891     Delta-E=       -0.000000000506 Rises=F Damp=F
 DIIS: error= 8.18D-08 at cycle   6 NSaved=   6.
 NSaved= 6 IEnMin= 6 EnMin= -731.369003551891     IErMin= 6 ErrMin= 8.18D-08
 ErrMax= 8.18D-08 EMaxC= 1.00D-01 BMatC= 5.80D-12 BMatP= 9.97D-11
 IDIUse=1 WtCom= 1.00D+00 WtEn= 0.00D+00
 Coeff-Com:  0.299D-01 0.901D-02-0.104D+00-0.475D-01 0.225D+00 0.888D+00
 Coeff:      0.299D-01 0.901D-02-0.104D+00-0.475D-01 0.225D+00 0.888D+00
 Gap=     0.344 Goal=   None    Shift=    0.000
 RMSDP=2.64D-08 MaxDP=1.49D-06 DE=-5.06D-10 OVMax= 2.48D-06

 Cycle  14  Pass 1  IDiag  1:
 RMSU=  1.43D-08    CP:  1.00D+00  1.55D+00  2.00D+00  1.53D+00  1.56D+00
                    CP:  1.15D+00
 E= -731.369003551895     Delta-E=       -0.000000000005 Rises=F Damp=F
 DIIS: error= 2.07D-08 at cycle   7 NSaved=   7.
 NSaved= 7 IEnMin= 7 EnMin= -731.369003551895     IErMin= 7 ErrMin= 2.07D-08
 ErrMax= 2.07D-08 EMaxC= 1.00D-01 BMatC= 6.03D-13 BMatP= 5.80D-12
 IDIUse=1 WtCom= 1.00D+00 WtEn= 0.00D+00
 Coeff-Com: -0.149D-01 0.117D-03 0.540D-01-0.203D-01-0.135D+00 0.231D-01
 Coeff-Com:  0.109D+01
 Coeff:     -0.149D-01 0.117D-03 0.540D-01-0.203D-01-0.135D+00 0.231D-01
 Coeff:      0.109D+01
 Gap=     0.344 Goal=   None    Shift=    0.000
 RMSDP=1.26D-08 MaxDP=1.05D-06 DE=-4.55D-12 OVMax= 8.00D-07

 Cycle  15  Pass 1  IDiag  1:
 RMSU=  5.15D-09    CP:  1.00D+00  1.55D+00  2.00D+00  1.52D+00  1.57D+00
                    CP:  1.23D+00  1.31D+00
 E= -731.369003551889     Delta-E=        0.000000000006 Rises=F Damp=F
 DIIS: error= 7.49D-09 at cycle   8 NSaved=   8.
 NSaved= 8 IEnMin= 7 EnMin= -731.369003551895     IErMin= 8 ErrMin= 7.49D-09
 ErrMax= 7.49D-09 EMaxC= 1.00D-01 BMatC= 5.86D-14 BMatP= 6.03D-13
 IDIUse=1 WtCom= 1.00D+00 WtEn= 0.00D+00
 Coeff-Com: -0.492D-02-0.793D-03 0.173D-01 0.171D-02-0.425D-01-0.766D-01
 Coeff-Com:  0.186D+00 0.920D+00
 Coeff:     -0.492D-02-0.793D-03 0.173D-01 0.171D-02-0.425D-01-0.766D-01
 Coeff:      0.186D+00 0.920D+00
 Gap=     0.344 Goal=   None    Shift=    0.000
 RMSDP=3.92D-09 MaxDP=3.48D-07 DE= 5.91D-12 OVMax= 2.00D-07

 SCF Done:  E(RHF) =  -731.369003552     A.U. after   15 cycles
             Convg  =    0.3915D-08             -V/T =  2.0010
 KE= 7.306190343920D+02 PE=-4.518264633516D+03 EE= 1.648317362478D+03
 Leave Link  502 at Tue Apr 10 10:53:34 2012, MaxMem=12884901888 cpu:   26993.7
 (Enter /share/apps/g09/l801.exe)
 ExpMin= 3.60D-02 ExpMax= 4.56D+03 ExpMxC= 6.82D+02 IAcc=3 IRadAn=         5 AccDes= 0.00D+00
 HarFok:  IExCor=  205 AccDes= 0.00D+00 IRadAn=         5 IDoV=-2
 ScaDFX=  1.000000  1.000000  1.000000  1.000000
 Largest valence mixing into a core orbital is  1.54D-04
 Largest core mixing into a valence orbital is  5.07D-05
 Range of M.O.s used for correlation:    20   931
 NBasis=   941 NAE=    67 NBE=    67 NFC=    19 NFV=     0
 NROrb=    912 NOA=    48 NOB=    48 NVA=   864 NVB=   864

 **** Warning!!: The largest alpha MO coefficient is  0.13212358D+03

 Leave Link  801 at Tue Apr 10 10:53:37 2012, MaxMem=12884901888 cpu:     144.8
 (Enter /share/apps/g09/l906.exe)
 FulOut=F Deriv=F AODrv=F NAtomX=    39
   MMem=         292  MDisk=          48 MDiskD=          48
  W3Min=    43752960 MinDsk=    45343048 NBas6D=        1055
 NBas2D=      559326    NTT=      557040    LW2=     2000000
    MDV= 12880934498 MDiskM=       61037 NBas2p=      235759
 Fully direct method using O(OVN) memory.
 IMap=   1   2   3   4   5   6   7   8   9  10  11  12  13  14  15  16  17  18  19  20
 IMap=  21  22  23  24  25  26  27  28  29  30  31  32  33  34  35  36  37  38  39  40
 IMap=  41  42  43  44  45  46  47  48
 JobTyp=1 Pass  1:  I=   1 to   6 NPSUse= 48 ParTrn=T ParDer=T DoDerP=F.
 JobTyp=1 Pass  2:  I=   7 to  13 NPSUse= 48 ParTrn=T ParDer=T DoDerP=F.
 JobTyp=1 Pass  3:  I=  14 to  22 NPSUse= 48 ParTrn=T ParDer=T DoDerP=F.
 JobTyp=1 Pass  4:  I=  23 to  36 NPSUse= 48 ParTrn=T ParDer=T DoDerP=F.
 JobTyp=1 Pass  5:  I=  37 to  48 NPSUse= 48 ParTrn=T ParDer=T DoDerP=F.
 Spin components of T(2) and E(2):
     alpha-alpha T2 =       0.1440881980D+00 E2=     -0.3912756131D+00
     alpha-beta  T2 =       0.7559274023D+00 E2=     -0.2298141867D+01
     beta-beta   T2 =       0.1440881980D+00 E2=     -0.3912756131D+00
 The integrals were generated   5 times.
 ANorm=    0.1429721581D+01
 E2 =    -0.3080693094D+01 EUMP2 =    -0.73444969664549D+03
 Leave Link  906 at Tue Apr 10 11:39:28 2012, MaxMem=12884901888 cpu:  131923.2
 (Enter /share/apps/g09/l601.exe)
 Copying SCF densities to generalized density rwf, IOpCl= 0 IROHF=0.

 **********************************************************************

            Population analysis using the SCF density.

 **********************************************************************

 Orbital symmetries:
       Occupied  (A') (A") (A') (A') (A") (A") (A') (A') (A") (A")
                 (A') (A") (A') (A") (A') (A") (A") (A') (A') (A')
                 (A') (A') (A") (A') (A") (A') (A") (A") (A') (A')
                 (A") (A') (A') (A") (A") (A') (A') (A') (A') (A')
                 (A") (A") (A') (A') (A") (A') (A") (A") (A') (A")
                 (A') (A") (A') (A") (A') (A') (A') (A') (A") (A")
                 (A') (A') (A") (A") (A') (A") (A')
       Virtual   (A') (A") (A') (A') (A") (A') (A") (A') (A') (A")
                 (A') (A") (A') (A') (A") (A") (A') (A") (A") (A')
                 (A') (A') (A") (A') (A") (A') (A') (A") (A') (A")
                 (A') (A") (A') (A') (A") (A') (A') (A") (A') (A")
                 (A') (A") (A') (A') (A") (A') (A") (A') (A") (A")
                 (A') (A') (A") (A') (A") (A') (A') (A") (A') (A")
                 (A") (A") (A') (A") (A') (A') (A") (A') (A') (A")
                 (A') (A') (A") (A") (A") (A') (A") (A') (A") (A')
                 (A") (A') (A') (A") (A') (A") (A') (A') (A") (A")
                 (A') (A") (A') (A') (A') (A") (A") (A') (A") (A')
                 (A") (A') (A") (A') (A") (A') (A") (A') (A") (A')
                 (A") (A') (A') (A") (A') (A") (A") (A') (A") (A')
                 (A") (A') (A') (A') (A') (A") (A") (A') (A") (A")
                 (A') (A') (A') (A') (A") (A') (A') (A") (A') (A")
                 (A') (A") (A") (A") (A') (A') (A') (A') (A") (A')
                 (A") (A') (A") (A') (A') (A") (A') (A") (A") (A')
                 (A') (A") (A') (A") (A") (A") (A') (A") (A') (A")
                 (A') (A') (A") (A") (A") (A') (A') (A') (A") (A")
                 (A') (A") (A') (A") (A') (A") (A') (A") (A') (A')
                 (A") (A") (A') (A") (A') (A") (A') (A') (A') (A')
                 (A") (A") (A") (A') (A") (A") (A') (A') (A") (A')
                 (A') (A") (A') (A') (A") (A") (A') (A') (A") (A')
                 (A") (A') (A") (A') (A') (A") (A') (A") (A') (A")
                 (A') (A") (A") (A') (A") (A') (A") (A') (A") (A")
                 (A') (A') (A") (A') (A') (A") (A") (A') (A") (A')
                 (A') (A") (A') (A") (A') (A") (A') (A") (A") (A')
                 (A') (A") (A") (A") (A') (A') (A") (A') (A") (A')
                 (A") (A") (A') (A') (A') (A") (A") (A') (A') (A")
                 (A') (A") (A") (A') (A') (A") (A') (A") (A") (A')
                 (A') (A") (A") (A") (A') (A") (A') (A') (A') (A")
                 (A') (A') (A") (A") (A") (A') (A") (A') (A') (A")
                 (A') (A") (A") (A") (A') (A") (A') (A") (A") (A')
                 (A') (A') (A") (A") (A') (A') (A") (A') (A') (A")
                 (A") (A') (A") (A') (A') (A") (A') (A") (A') (A")
                 (A") (A') (A') (A') (A') (A') (A") (A") (A') (A')
                 (A") (A') (A") (A') (A") (A') (A") (A") (A') (A')
                 (A") (A") (A') (A') (A") (A') (A") (A") (A') (A')
                 (A") (A") (A') (A') (A") (A") (A") (A') (A') (A')
                 (A') (A") (A") (A') (A") (A') (A') (A") (A') (A')
                 (A") (A") (A') (A') (A") (A') (A') (A") (A") (A")
                 (A") (A') (A") (A') (A') (A') (A') (A") (A") (A')
                 (A") (A') (A") (A") (A') (A') (A") (A') (A') (A")
                 (A') (A") (A') (A") (A") (A') (A") (A') (A") (A')
                 (A') (A") (A') (A") (A") (A') (A') (A") (A") (A')
                 (A") (A') (A') (A") (A") (A') (A") (A") (A') (A")
                 (A") (A') (A') (A") (A") (A') (A') (A") (A") (A')
                 (A') (A") (A") (A') (A") (A') (A') (A") (A") (A')
                 (A") (A') (A") (A") (A") (A") (A') (A') (A") (A')
                 (A') (A") (A') (A') (A") (A') (A') (A') (A') (A")
                 (A') (A') (A") (A") (A') (A") (A') (A") (A') (A')
                 (A") (A') (A") (A') (A") (A') (A") (A') (A") (A')
                 (A") (A') (A') (A") (A') (A") (A') (A") (A') (A")
                 (A") (A') (A') (A") (A') (A') (A") (A') (A') (A")
                 (A') (A") (A") (A') (A') (A") (A') (A") (A') (A')
                 (A") (A") (A') (A') (A') (A') (A") (A") (A') (A")
                 (A") (A') (A') (A") (A') (A") (A') (A") (A') (A')
                 (A") (A") (A") (A') (A") (A') (A') (A") (A") (A')
                 (A') (A") (A') (A") (A') (A") (A") (A') (A') (A')
                 (A") (A') (A') (A') (A") (A") (A") (A') (A") (A')
                 (A') (A") (A") (A") (A') (A") (A") (A") (A') (A")
                 (A") (A') (A") (A') (A') (A") (A') (A') (A") (A')
                 (A') (A") (A") (A') (A") (A') (A') (A") (A") (A')
                 (A") (A') (A') (A') (A") (A") (A') (A') (A") (A')
                 (A") (A") (A') (A') (A') (A") (A") (A') (A") (A")
                 (A') (A") (A') (A") (A') (A") (A') (A') (A") (A')
                 (A") (A') (A") (A") (A') (A') (A") (A") (A') (A")
                 (A') (A") (A") (A") (A') (A") (A') (A') (A') (A")
                 (A') (A') (A") (A') (A") (A") (A') (A") (A") (A')
                 (A') (A") (A') (A") (A') (A') (A") (A") (A') (A")
                 (A") (A') (A") (A') (A") (A') (A") (A") (A') (A")
                 (A") (A') (A') (A") (A") (A') (A") (A") (A') (A")
                 (A") (A') (A") (A") (A') (A") (A") (A') (A') (A')
                 (A") (A") (A') (A") (A') (A') (A") (A") (A') (A')
                 (A") (A") (A") (A') (A') (A") (A') (A') (A") (A')
                 (A') (A") (A') (A") (A") (A") (A") (A") (A") (A")
                 (A') (A') (A") (A") (A') (A') (A') (A') (A') (A')
                 (A') (A") (A") (A') (A") (A') (A") (A") (A') (A')
                 (A") (A') (A') (A") (A') (A") (A") (A') (A") (A")
                 (A') (A") (A") (A') (A") (A") (A') (A") (A') (A")
                 (A') (A') (A") (A') (A") (A') (A") (A') (A') (A")
                 (A') (A") (A") (A") (A") (A") (A') (A') (A') (A")
                 (A") (A') (A') (A') (A") (A') (A') (A") (A") (A')
                 (A') (A") (A') (A') (A') (A") (A") (A") (A") (A')
                 (A') (A') (A") (A") (A') (A') (A") (A") (A') (A")
                 (A') (A") (A") (A") (A") (A') (A') (A') (A') (A")
                 (A') (A") (A') (A") (A") (A') (A") (A') (A") (A")
                 (A') (A') (A") (A")
 The electronic state is 1-A'.
 Alpha  occ. eigenvalues --  -11.23579 -11.23466 -11.22998 -11.22990 -11.22896
 Alpha  occ. eigenvalues --  -11.22879 -11.22786 -11.22770 -11.22770 -11.22763
 Alpha  occ. eigenvalues --  -11.22620 -11.22577 -11.22577 -11.22524 -11.22430
 Alpha  occ. eigenvalues --  -11.22400 -11.21966 -11.21966 -11.21232  -1.16937
 Alpha  occ. eigenvalues --   -1.15468  -1.10985  -1.07419  -1.04640  -1.02886
 Alpha  occ. eigenvalues --   -1.01431  -0.99673  -0.93677  -0.91440  -0.90470
 Alpha  occ. eigenvalues --   -0.84932  -0.82085  -0.80987  -0.78036  -0.75076
 Alpha  occ. eigenvalues --   -0.73761  -0.68529  -0.66821  -0.66567  -0.64973
 Alpha  occ. eigenvalues --   -0.62616  -0.62553  -0.61298  -0.60712  -0.59001
 Alpha  occ. eigenvalues --   -0.57881  -0.57834  -0.57212  -0.54724  -0.54574
 Alpha  occ. eigenvalues --   -0.53219  -0.52420  -0.51591  -0.51335  -0.49671
 Alpha  occ. eigenvalues --   -0.48877  -0.47656  -0.47133  -0.46573  -0.45178
 Alpha  occ. eigenvalues --   -0.45105  -0.44300  -0.43010  -0.33360  -0.32511
 Alpha  occ. eigenvalues --   -0.32430  -0.30785
 Alpha virt. eigenvalues --    0.03594   0.04212   0.04342   0.04738   0.05500
 Alpha virt. eigenvalues --    0.05691   0.06153   0.06371   0.07247   0.07427
 Alpha virt. eigenvalues --    0.07998   0.08015   0.08640   0.09604   0.09681
 Alpha virt. eigenvalues --    0.10358   0.10608   0.10956   0.11184   0.11324
 Alpha virt. eigenvalues --    0.12060   0.12422   0.12643   0.13396   0.14051
 Alpha virt. eigenvalues --    0.14215   0.15169   0.15356   0.15440   0.15952
 Alpha virt. eigenvalues --    0.16710   0.17029   0.17374   0.17747   0.17792
 Alpha virt. eigenvalues --    0.17960   0.18305   0.18674   0.18731   0.18967
 Alpha virt. eigenvalues --    0.19064   0.19439   0.19454   0.19855   0.19987
 Alpha virt. eigenvalues --    0.20576   0.20764   0.21277   0.21358   0.21789
 Alpha virt. eigenvalues --    0.22161   0.22474   0.22777   0.22959   0.23136
 Alpha virt. eigenvalues --    0.23669   0.23734   0.24092   0.24567   0.24659
 Alpha virt. eigenvalues --    0.24862   0.25172   0.25321   0.25530   0.26012
 Alpha virt. eigenvalues --    0.26351   0.26436   0.26700   0.28010   0.28395
 Alpha virt. eigenvalues --    0.28980   0.29285   0.29319   0.29428   0.30544
 Alpha virt. eigenvalues --    0.30852   0.30946   0.31122   0.32068   0.32181
 Alpha virt. eigenvalues --    0.32867   0.33283   0.33692   0.33771   0.33935
 Alpha virt. eigenvalues --    0.34523   0.34955   0.35315   0.36007   0.36295
 Alpha virt. eigenvalues --    0.37187   0.37632   0.37811   0.37934   0.38152
 Alpha virt. eigenvalues --    0.38386   0.38683   0.39398   0.39897   0.40636
 Alpha virt. eigenvalues --    0.40743   0.40993   0.41219   0.41557   0.41647
 Alpha virt. eigenvalues --    0.42106   0.42211   0.43244   0.43382   0.43477
 Alpha virt. eigenvalues --    0.44387   0.44706   0.45364   0.45762   0.46636
 Alpha virt. eigenvalues --    0.46807   0.47367   0.47555   0.48579   0.48911
 Alpha virt. eigenvalues --    0.49305   0.50020   0.50034   0.50622   0.51229
 Alpha virt. eigenvalues --    0.51379   0.51854   0.53174   0.53184   0.53407
 Alpha virt. eigenvalues --    0.53566   0.54638   0.55036   0.55312   0.56381
 Alpha virt. eigenvalues --    0.56450   0.56865   0.56967   0.57448   0.58515
 Alpha virt. eigenvalues --    0.58574   0.59168   0.59789   0.60137   0.60378
 Alpha virt. eigenvalues --    0.61182   0.61895   0.62410   0.63102   0.63516
 Alpha virt. eigenvalues --    0.64017   0.64402   0.65159   0.65488   0.65592
 Alpha virt. eigenvalues --    0.66808   0.67417   0.67460   0.68150   0.68964
 Alpha virt. eigenvalues --    0.69236   0.69358   0.69826   0.70312   0.71335
 Alpha virt. eigenvalues --    0.72334   0.72606   0.73227   0.73820   0.74041
 Alpha virt. eigenvalues --    0.74703   0.75280   0.75424   0.76150   0.76349
 Alpha virt. eigenvalues --    0.76509   0.76954   0.77456   0.77609   0.78438
 Alpha virt. eigenvalues --    0.78573   0.78588   0.79206   0.79579   0.79742
 Alpha virt. eigenvalues --    0.79812   0.80468   0.80700   0.81357   0.81891
 Alpha virt. eigenvalues --    0.82108   0.82483   0.82718   0.82929   0.83562
 Alpha virt. eigenvalues --    0.84096   0.84135   0.84340   0.85179   0.86057
 Alpha virt. eigenvalues --    0.86092   0.86624   0.87320   0.87782   0.88571
 Alpha virt. eigenvalues --    0.88831   0.88979   0.89754   0.90186   0.90405
 Alpha virt. eigenvalues --    0.90468   0.91419   0.92217   0.92334   0.92874
 Alpha virt. eigenvalues --    0.93477   0.94483   0.95400   0.95748   0.95907
 Alpha virt. eigenvalues --    0.97008   0.97465   0.97520   0.98245   0.98746
 Alpha virt. eigenvalues --    0.99298   0.99584   1.01255   1.01275   1.01376
 Alpha virt. eigenvalues --    1.02063   1.02619   1.03147   1.03157   1.04530
 Alpha virt. eigenvalues --    1.05080   1.05704   1.05912   1.06266   1.07281
 Alpha virt. eigenvalues --    1.07467   1.08184   1.09269   1.09309   1.09888
 Alpha virt. eigenvalues --    1.10694   1.11387   1.13190   1.13474   1.13493
 Alpha virt. eigenvalues --    1.14608   1.15590   1.16803   1.17630   1.19413
 Alpha virt. eigenvalues --    1.19435   1.19839   1.20201   1.20985   1.21489
 Alpha virt. eigenvalues --    1.22104   1.22683   1.23379   1.25096   1.25479
 Alpha virt. eigenvalues --    1.26604   1.26954   1.27394   1.27479   1.28998
 Alpha virt. eigenvalues --    1.29842   1.31098   1.31207   1.31269   1.32708
 Alpha virt. eigenvalues --    1.33282   1.34240   1.34361   1.34788   1.34995
 Alpha virt. eigenvalues --    1.35305   1.36835   1.37163   1.37376   1.38574
 Alpha virt. eigenvalues --    1.38734   1.39643   1.39790   1.40012   1.41422
 Alpha virt. eigenvalues --    1.41494   1.41979   1.42287   1.42756   1.43598
 Alpha virt. eigenvalues --    1.43727   1.44269   1.45213   1.45923   1.46638
 Alpha virt. eigenvalues --    1.47080   1.47980   1.48063   1.48656   1.49066
 Alpha virt. eigenvalues --    1.49251   1.49871   1.49881   1.50200   1.50880
 Alpha virt. eigenvalues --    1.51154   1.52012   1.52226   1.53014   1.53465
 Alpha virt. eigenvalues --    1.54211   1.54958   1.55423   1.56644   1.56881
 Alpha virt. eigenvalues --    1.57850   1.58469   1.58795   1.60121   1.60398
 Alpha virt. eigenvalues --    1.60816   1.60878   1.61398   1.62311   1.62477
 Alpha virt. eigenvalues --    1.62945   1.64021   1.64397   1.64648   1.65437
 Alpha virt. eigenvalues --    1.65811   1.66252   1.66487   1.67008   1.67632
 Alpha virt. eigenvalues --    1.68689   1.68820   1.69587   1.70006   1.71461
 Alpha virt. eigenvalues --    1.71606   1.71758   1.72395   1.73199   1.73883
 Alpha virt. eigenvalues --    1.74067   1.75102   1.76308   1.76652   1.76655
 Alpha virt. eigenvalues --    1.76892   1.77617   1.77896   1.78563   1.79552
 Alpha virt. eigenvalues --    1.80405   1.80697   1.81107   1.81904   1.82172
 Alpha virt. eigenvalues --    1.83874   1.84286   1.84638   1.84808   1.86090
 Alpha virt. eigenvalues --    1.86141   1.87369   1.88476   1.88858   1.89436
 Alpha virt. eigenvalues --    1.90141   1.90653   1.91127   1.92769   1.94253
 Alpha virt. eigenvalues --    1.95031   1.95287   1.96575   1.97620   1.98981
 Alpha virt. eigenvalues --    1.99498   2.00889   2.00975   2.01252   2.03106
 Alpha virt. eigenvalues --    2.04076   2.06010   2.06477   2.07098   2.07195
 Alpha virt. eigenvalues --    2.09476   2.10114   2.10339   2.10448   2.14187
 Alpha virt. eigenvalues --    2.14618   2.15575   2.15822   2.16760   2.19336
 Alpha virt. eigenvalues --    2.20143   2.21459   2.22267   2.22956   2.24347
 Alpha virt. eigenvalues --    2.24757   2.25699   2.26581   2.28430   2.28913
 Alpha virt. eigenvalues --    2.30818   2.30945   2.31844   2.32225   2.33579
 Alpha virt. eigenvalues --    2.34074   2.35256   2.36681   2.36865   2.37612
 Alpha virt. eigenvalues --    2.37754   2.38714   2.39232   2.41194   2.43089
 Alpha virt. eigenvalues --    2.43707   2.44408   2.45117   2.45307   2.47286
 Alpha virt. eigenvalues --    2.48397   2.49165   2.49223   2.52733   2.53340
 Alpha virt. eigenvalues --    2.54771   2.55241   2.56092   2.58221   2.60073
 Alpha virt. eigenvalues --    2.61734   2.62659   2.64278   2.66008   2.67581
 Alpha virt. eigenvalues --    2.70153   2.70368   2.72215   2.72536   2.74582
 Alpha virt. eigenvalues --    2.74596   2.75860   2.76578   2.77305   2.77857
 Alpha virt. eigenvalues --    2.82173   2.82206   2.83476   2.84841   2.86070
 Alpha virt. eigenvalues --    2.86809   2.87593   2.88836   2.88901   2.89208
 Alpha virt. eigenvalues --    2.89546   2.92478   2.93102   2.95139   2.99194
 Alpha virt. eigenvalues --    3.00433   3.02729   3.03949   3.05445   3.06455
 Alpha virt. eigenvalues --    3.06919   3.09133   3.10233   3.12632   3.13449
 Alpha virt. eigenvalues --    3.15051   3.15667   3.16138   3.16564   3.17560
 Alpha virt. eigenvalues --    3.17901   3.19193   3.19917   3.20475   3.21530
 Alpha virt. eigenvalues --    3.23043   3.23247   3.23391   3.24917   3.26108
 Alpha virt. eigenvalues --    3.26473   3.26661   3.27198   3.27825   3.28019
 Alpha virt. eigenvalues --    3.30200   3.30862   3.30883   3.31701   3.32110
 Alpha virt. eigenvalues --    3.33106   3.33257   3.33600   3.34438   3.35016
 Alpha virt. eigenvalues --    3.36469   3.39896   3.40509   3.40531   3.41263
 Alpha virt. eigenvalues --    3.41906   3.43610   3.44221   3.44870   3.45723
 Alpha virt. eigenvalues --    3.47968   3.48608   3.48707   3.50165   3.50256
 Alpha virt. eigenvalues --    3.50837   3.54391   3.54920   3.55191   3.55996
 Alpha virt. eigenvalues --    3.56488   3.58495   3.58999   3.60276   3.60969
 Alpha virt. eigenvalues --    3.61923   3.63463   3.63602   3.63705   3.64994
 Alpha virt. eigenvalues --    3.65531   3.65579   3.67901   3.68092   3.68441
 Alpha virt. eigenvalues --    3.70037   3.70089   3.70746   3.71998   3.72314
 Alpha virt. eigenvalues --    3.73690   3.75004   3.75065   3.75445   3.76010
 Alpha virt. eigenvalues --    3.76728   3.78486   3.78939   3.79784   3.80966
 Alpha virt. eigenvalues --    3.80974   3.82151   3.84188   3.85113   3.85717
 Alpha virt. eigenvalues --    3.86374   3.86717   3.87675   3.89027   3.89195
 Alpha virt. eigenvalues --    3.89512   3.90841   3.91067   3.91817   3.93058
 Alpha virt. eigenvalues --    3.94157   3.94878   3.97389   3.97963   3.98190
 Alpha virt. eigenvalues --    3.98721   3.99311   4.00523   4.01323   4.01449
 Alpha virt. eigenvalues --    4.01962   4.02619   4.04320   4.05236   4.07528
 Alpha virt. eigenvalues --    4.08688   4.09866   4.10328   4.10878   4.11277
 Alpha virt. eigenvalues --    4.14804   4.16355   4.17363   4.17787   4.19779
 Alpha virt. eigenvalues --    4.20078   4.20692   4.22055   4.22574   4.23189
 Alpha virt. eigenvalues --    4.24064   4.24167   4.25696   4.26579   4.28143
 Alpha virt. eigenvalues --    4.31256   4.32221   4.32357   4.33340   4.33926
 Alpha virt. eigenvalues --    4.35268   4.37035   4.39297   4.39952   4.42555
 Alpha virt. eigenvalues --    4.43569   4.46384   4.48259   4.48574   4.49853
 Alpha virt. eigenvalues --    4.51953   4.52731   4.54084   4.54921   4.56577
 Alpha virt. eigenvalues --    4.58848   4.59779   4.60182   4.61022   4.61978
 Alpha virt. eigenvalues --    4.63293   4.65240   4.65268   4.67461   4.70155
 Alpha virt. eigenvalues --    4.70620   4.71432   4.71853   4.73108   4.73478
 Alpha virt. eigenvalues --    4.73760   4.74267   4.74973   4.75689   4.75881
 Alpha virt. eigenvalues --    4.76089   4.76103   4.77760   4.78465   4.79394
 Alpha virt. eigenvalues --    4.80080   4.81825   4.82683   4.83840   4.84990
 Alpha virt. eigenvalues --    4.86479   4.87085   4.88551   4.89350   4.90153
 Alpha virt. eigenvalues --    4.90310   4.91624   4.92648   4.93034   4.95112
 Alpha virt. eigenvalues --    4.95768   4.96550   4.97189   4.98453   4.99612
 Alpha virt. eigenvalues --    5.01929   5.02355   5.03422   5.04261   5.05710
 Alpha virt. eigenvalues --    5.07361   5.07436   5.08309   5.08493   5.10894
 Alpha virt. eigenvalues --    5.12057   5.12974   5.13245   5.13376   5.13708
 Alpha virt. eigenvalues --    5.14360   5.16738   5.19288   5.20451   5.21772
 Alpha virt. eigenvalues --    5.22193   5.22872   5.24276   5.24447   5.26724
 Alpha virt. eigenvalues --    5.27893   5.30466   5.31794   5.32404   5.33201
 Alpha virt. eigenvalues --    5.38507   5.41456   5.41529   5.42796   5.44589
 Alpha virt. eigenvalues --    5.52598   5.65364   5.66557   5.72642   5.74536
 Alpha virt. eigenvalues --    5.75599   5.76328   5.77014   5.78056   5.86113
 Alpha virt. eigenvalues --    5.99038   6.01115   6.04147   6.09429   6.20602
 Alpha virt. eigenvalues --    6.21466   6.25150   6.27143   6.28598   6.29326
 Alpha virt. eigenvalues --    6.30804   6.31527   6.32580   6.33923   6.35587
 Alpha virt. eigenvalues --    6.37822   6.38031   6.38224   6.38770   6.52557
 Alpha virt. eigenvalues --    6.54364   6.63175   6.63935   7.09331   7.09869
 Alpha virt. eigenvalues --    7.57082   7.57175   7.60784   7.61559   7.62120
 Alpha virt. eigenvalues --    7.62787   7.66442   7.67959   7.69479   7.71981
 Alpha virt. eigenvalues --    7.73374   7.75067   7.78349   7.78477   7.79540
 Alpha virt. eigenvalues --    7.79819   7.79939   7.81922   7.82113   7.83750
 Alpha virt. eigenvalues --    7.84008   7.85506   7.88190   7.90404   7.92681
 Alpha virt. eigenvalues --    7.92805   7.93142   7.93562   7.93622   7.95592
 Alpha virt. eigenvalues --    7.95709   7.96610   7.98303   7.99983   8.02954
 Alpha virt. eigenvalues --    8.03866   8.05223   8.06625   8.08177   8.09820
 Alpha virt. eigenvalues --    8.10120   8.11035   8.14158   8.14291   8.15448
 Alpha virt. eigenvalues --    8.17114   8.21731   8.25093   8.26853   8.27786
 Alpha virt. eigenvalues --    8.32283   8.32351   8.34799   8.35313   8.37436
 Alpha virt. eigenvalues --    8.40041   8.40081   8.44095   8.45868   8.46809
 Alpha virt. eigenvalues --    8.47603   8.48065   8.48691   8.49157   8.49972
 Alpha virt. eigenvalues --    8.50924   8.51117   8.51696   8.66203   8.66986
 Alpha virt. eigenvalues --    8.68446   8.75226   8.77403   8.78821   8.80108
 Alpha virt. eigenvalues --    8.82209   8.83258   8.88295   8.91861   8.92963
 Alpha virt. eigenvalues --    8.93305   8.94615   8.99252   9.00353   9.00450
 Alpha virt. eigenvalues --    9.05181   9.06901   9.15498   9.17839   9.21211
 Alpha virt. eigenvalues --    9.30027   9.47969   9.52433   9.91336   9.92889
 Alpha virt. eigenvalues --   25.17175  25.24543  25.54117  25.68491  25.68646
 Alpha virt. eigenvalues --   25.70798  25.73459  25.76369  25.76597  26.15759
 Alpha virt. eigenvalues --   26.16788  26.16887  26.19106  26.55136  26.56218
 Alpha virt. eigenvalues --   26.60001  26.61012  26.98278  26.98833
          Condensed to atoms (all electrons):
              1          2          3          4          5          6
     1  C    8.856663   0.084154  -0.913488  -0.270357   0.076685   0.192061
     2  C    0.084154   8.856663  -0.341828  -1.093815   0.076685   0.193777
     3  C   -0.913488  -0.341828   8.193923   0.286528  -0.656446  -0.536667
     4  C   -0.270357  -1.093815   0.286528   9.205676  -0.934612  -0.269411
     5  C    0.076685   0.076685  -0.656446  -0.934612   8.519740  -0.515751
     6  C    0.192061   0.193777  -0.536667  -0.269411  -0.515751   8.595428
     7  C   -0.068876  -0.161463   0.098946  -0.509262   0.173273  -0.927424
     8  C   -0.161463  -0.068876   0.146584  -0.165470   0.173273  -0.773481
     9  C    0.193777   0.192061  -0.207172  -0.249131  -0.515751   1.269336
    10  C   -1.093815  -0.270357   0.663685   0.278391  -0.934612  -0.249131
    11  C   -0.341828  -0.913488   0.646264   0.663685  -0.656446  -0.207172
    12  H   -0.030768  -0.109217   0.592852   0.013674  -0.017199  -0.084738
    13  H    0.054026   0.060046   0.347212  -0.139212   0.005249   0.073594
    14  H    0.010404   0.008618  -0.091178   0.612662  -0.046488  -0.026696
    15  H    0.005171   0.005171   0.005340  -0.099246   0.548998   0.007548
    16  H   -0.012342  -0.012342   0.051315  -0.055492   0.421563  -0.049178
    17  H   -0.003760   0.001785   0.023615  -0.084094  -0.034619   0.566089
    18  H    0.004210   0.017828  -0.004879  -0.141488   0.021761   0.559905
    19  H    0.001785  -0.003760   0.004618  -0.000986  -0.034619   0.035924
    20  H    0.017828   0.004210  -0.015179   0.001143   0.021761   0.007589
    21  H    0.008618   0.010404  -0.008368   0.006359  -0.046488   0.005748
    22  H    0.060046   0.054026  -0.056765  -0.080248   0.005249   0.067703
    23  H   -0.109217  -0.030768   0.053104   0.021022  -0.017199  -0.028832
    24  C   -0.388659  -0.108337  -1.032537  -0.661016   0.277169   0.028967
    25  C    0.343035  -0.772277  -0.116192  -0.042386   0.007116   0.006351
    26  C   -0.772277   0.343035   0.032686   0.107570   0.007116   0.003562
    27  C   -0.108337  -0.388659  -0.658877  -0.294471   0.277169   0.020126
    28  H   -0.001697  -0.070359   0.011665  -0.012609   0.006863   0.004649
    29  H    0.009057   0.004803  -0.002539   0.000667  -0.002461   0.000595
    30  H    0.004803   0.009057   0.001698   0.001626  -0.002461   0.000530
    31  H   -0.070359  -0.001697  -0.016422  -0.006886   0.006863   0.001713
    32  C   -0.056818  -0.040434   0.097768   0.000700  -0.025892  -0.038691
    33  C    0.121252   0.210351  -0.151427  -0.274876   0.144299  -0.980273
    34  C    0.210351   0.121252  -0.177839  -0.067509   0.144299  -0.506386
    35  C   -0.040434  -0.056818   0.065971   0.087383  -0.025892  -0.059517
    36  H   -0.000890  -0.000614   0.002094  -0.000322  -0.002327   0.004312
    37  H    0.003404   0.006664  -0.008267   0.002712   0.018255  -0.002744
    38  H    0.006664   0.003404  -0.008570  -0.004317   0.018255  -0.014836
    39  H   -0.000614  -0.000890   0.001196   0.000830  -0.002327   0.003585
              7          8          9         10         11         12
     1  C   -0.068876  -0.161463   0.193777  -1.093815  -0.341828  -0.030768
     2  C   -0.161463  -0.068876   0.192061  -0.270357  -0.913488  -0.109217
     3  C    0.098946   0.146584  -0.207172   0.663685   0.646264   0.592852
     4  C   -0.509262  -0.165470  -0.249131   0.278391   0.663685   0.013674
     5  C    0.173273   0.173273  -0.515751  -0.934612  -0.656446  -0.017199
     6  C   -0.927424  -0.773481   1.269336  -0.249131  -0.207172  -0.084738
     7  C   10.191257   1.225807  -0.773481  -0.165470   0.146584   0.013876
     8  C    1.225807  10.191257  -0.927424  -0.509262   0.098946   0.013453
     9  C   -0.773481  -0.927424   8.595428  -0.269411  -0.536667  -0.028832
    10  C   -0.165470  -0.509262  -0.269411   9.205676   0.286528   0.021022
    11  C    0.146584   0.098946  -0.536667   0.286528   8.193923   0.053104
    12  H    0.013876   0.013453  -0.028832   0.021022   0.053104   0.510701
    13  H    0.015700  -0.044167   0.067703  -0.080248  -0.056765  -0.015609
    14  H   -0.034252  -0.017995   0.005748   0.006359  -0.008368  -0.004396
    15  H   -0.004202  -0.004202   0.007548  -0.099246   0.005340  -0.000152
    16  H    0.043715   0.043715  -0.049178  -0.055492   0.051315   0.006689
    17  H   -0.043067  -0.006332   0.035924  -0.000986   0.004618   0.000824
    18  H   -0.088840  -0.033138   0.007589   0.001143  -0.015179  -0.002402
    19  H   -0.006332  -0.043067   0.566089  -0.084094   0.023615  -0.000233
    20  H   -0.033138  -0.088840   0.559905  -0.141488  -0.004879  -0.000096
    21  H   -0.017995  -0.034252  -0.026696   0.612662  -0.091178  -0.000719
    22  H   -0.044167   0.015700   0.073594  -0.139212   0.347212  -0.007882
    23  H    0.013453   0.013876  -0.084738   0.013674   0.592852   0.004284
    24  C   -0.034008  -0.006145   0.020126  -0.294471  -0.658877  -0.035914
    25  C   -0.011665  -0.007026   0.003562   0.107570   0.032686  -0.004438
    26  C   -0.007026  -0.011665   0.006351  -0.042386  -0.116192   0.004986
    27  C   -0.006145  -0.034008   0.028967  -0.661016  -1.032537  -0.023483
    28  H   -0.001394  -0.000328   0.001713  -0.006886  -0.016422  -0.002954
    29  H   -0.000130  -0.000194   0.000530   0.001626   0.001698  -0.000070
    30  H   -0.000194  -0.000130   0.000595   0.000667  -0.002539  -0.000021
    31  H   -0.000328  -0.001394   0.004649  -0.012609   0.011665  -0.001197
    32  C   -0.673903   0.366195  -0.059517   0.087383   0.065971   0.007443
    33  C   -1.706390  -1.284587  -0.506386  -0.067509  -0.177839  -0.012633
    34  C   -1.284587  -1.706390  -0.980273  -0.274876  -0.151427  -0.006982
    35  C    0.366195  -0.673903  -0.038691   0.000700   0.097768   0.005493
    36  H    0.017710   0.013370   0.003585   0.000830   0.001196   0.000251
    37  H   -0.108806  -0.005368  -0.014836  -0.004317  -0.008570  -0.000872
    38  H   -0.005368  -0.108806  -0.002744   0.002712  -0.008267  -0.000194
    39  H    0.013370   0.017710   0.004312  -0.000322   0.002094   0.000130
             13         14         15         16         17         18
     1  C    0.054026   0.010404   0.005171  -0.012342  -0.003760   0.004210
     2  C    0.060046   0.008618   0.005171  -0.012342   0.001785   0.017828
     3  C    0.347212  -0.091178   0.005340   0.051315   0.023615  -0.004879
     4  C   -0.139212   0.612662  -0.099246  -0.055492  -0.084094  -0.141488
     5  C    0.005249  -0.046488   0.548998   0.421563  -0.034619   0.021761
     6  C    0.073594  -0.026696   0.007548  -0.049178   0.566089   0.559905
[...]
   774    C   33  S      Ryd( 3S)     0.00450       1.33155
   775    C   33  S      Ryd( 5S)     0.03678      17.49778
   776    C   33  px     Val( 2p)     0.89209       0.72030
   777    C   33  px     Ryd( 4p)     0.09197       1.22140
   778    C   33  px     Ryd( 3p)     0.02222       1.03525
   779    C   33  px     Ryd( 5p)     0.03920       3.06432
   780    C   33  py     Val( 2p)     0.89145       0.14209
   781    C   33  py     Ryd( 4p)     0.08305       1.13836
   782    C   33  py     Ryd( 3p)     0.02246       0.90725
   783    C   33  py     Ryd( 5p)     0.06375       2.91130
   784    C   33  pz     Val( 2p)     0.96625       0.35033
   785    C   33  pz     Ryd( 3p)     0.13726       1.35661
   786    C   33  pz     Ryd( 4p)     0.00011       1.80946
   787    C   33  pz     Ryd( 5p)     0.00047       3.22343
   788    C   33  dxy    Ryd( 3d)     0.00247       1.93136
   789    C   33  dxy    Ryd( 4d)     0.00037       2.75689
   790    C   33  dxy    Ryd( 5d)     0.00010       7.55980
   791    C   33  dxz    Ryd( 4d)     0.00123       2.77635
   792    C   33  dxz    Ryd( 3d)     0.00044       2.52457
   793    C   33  dxz    Ryd( 5d)     0.00003       7.32891
   794    C   33  dyz    Ryd( 3d)     0.00126       2.22283
   795    C   33  dyz    Ryd( 4d)     0.00060       2.29849
   796    C   33  dyz    Ryd( 5d)     0.00004       7.28510
   797    C   33  dx2y2  Ryd( 3d)     0.00042       1.67910
   798    C   33  dx2y2  Ryd( 4d)     0.00009       2.25654
   799    C   33  dx2y2  Ryd( 5d)     0.00010       7.45872
   800    C   33  dz2    Ryd( 3d)     0.00175       2.08588
   801    C   33  dz2    Ryd( 4d)     0.00015       2.58388
   802    C   33  dz2    Ryd( 5d)     0.00024       7.58379
   803    C   33  f(0)   Ryd( 4f)     0.00016       4.54545
   804    C   33  f(C1)  Ryd( 4f)     0.00004       4.30148
   805    C   33  f(S1)  Ryd( 4f)     0.00004       4.10760
   806    C   33  f(C2)  Ryd( 4f)     0.00001       3.97709
   807    C   33  f(S2)  Ryd( 4f)     0.00015       4.30275
   808    C   33  f(C3)  Ryd( 4f)     0.00011       4.06726
   809    C   33  f(S3)  Ryd( 4f)     0.00006       4.35229

   810    C   34  S      Cor( 1S)     1.98931     -10.85318
   811    C   34  S      Val( 2S)     0.91072      -0.21483
   812    C   34  S      Ryd( 4S)     0.02174       2.06215
   813    C   34  S      Ryd( 3S)     0.00843       1.09191
   814    C   34  S      Ryd( 5S)     0.03565      17.35132
   815    C   34  px     Val( 2p)     0.77010       0.82107
   816    C   34  px     Ryd( 4p)     0.22578       1.27423
   817    C   34  px     Ryd( 3p)     0.01042       0.86475
   818    C   34  px     Ryd( 5p)     0.03840       2.97692
   819    C   34  py     Val( 2p)     0.77297       0.26574
   820    C   34  py     Ryd( 4p)     0.21390       1.12638
   821    C   34  py     Ryd( 3p)     0.01325       0.83523
   822    C   34  py     Ryd( 5p)     0.02116       3.01531
   823    C   34  pz     Val( 2p)     0.94664       0.28234
   824    C   34  pz     Ryd( 3p)     0.20014       1.27396
   825    C   34  pz     Ryd( 4p)     0.00064       1.31326
   826    C   34  pz     Ryd( 5p)     0.00100       3.32464
   827    C   34  dxy    Ryd( 3d)     0.00359       2.55162
   828    C   34  dxy    Ryd( 4d)     0.00023       2.86060
   829    C   34  dxy    Ryd( 5d)     0.00020       7.45524
   830    C   34  dxz    Ryd( 4d)     0.00173       3.03012
   831    C   34  dxz    Ryd( 3d)     0.00042       2.36509
   832    C   34  dxz    Ryd( 5d)     0.00006       7.33287
   833    C   34  dyz    Ryd( 4d)     0.00159       2.52810
   834    C   34  dyz    Ryd( 3d)     0.00077       2.16565
   835    C   34  dyz    Ryd( 5d)     0.00007       7.21160
   836    C   34  dx2y2  Ryd( 3d)     0.00040       1.86015
   837    C   34  dx2y2  Ryd( 4d)     0.00008       2.25586
   838    C   34  dx2y2  Ryd( 5d)     0.00010       7.45834
   839    C   34  dz2    Ryd( 3d)     0.00181       2.13583
   840    C   34  dz2    Ryd( 4d)     0.00017       2.56955
   841    C   34  dz2    Ryd( 5d)     0.00024       7.58732
   842    C   34  f(0)   Ryd( 4f)     0.00018       4.53697
   843    C   34  f(C1)  Ryd( 4f)     0.00004       4.30352
   844    C   34  f(S1)  Ryd( 4f)     0.00005       4.10837
   845    C   34  f(C2)  Ryd( 4f)     0.00002       4.01868
   846    C   34  f(S2)  Ryd( 4f)     0.00015       4.29883
   847    C   34  f(C3)  Ryd( 4f)     0.00009       4.42664
   848    C   34  f(S3)  Ryd( 4f)     0.00010       4.19559

   849    C   35  S      Cor( 1S)     1.98786     -10.83989
   850    C   35  S      Val( 2S)     0.94015      -0.33776
   851    C   35  S      Ryd( 4S)     0.00545       1.65803
   852    C   35  S      Ryd( 3S)     0.00786       1.20286
   853    C   35  S      Ryd( 5S)     0.03815      19.65673
   854    C   35  px     Val( 3p)     1.03459       0.65612
   855    C   35  px     Ryd( 4p)     0.00533       1.35655
   856    C   35  px     Ryd( 2p)     0.00528       0.62559
   857    C   35  px     Ryd( 5p)     0.03737       3.34638
   858    C   35  py     Val( 2p)     1.01570       0.07501
   859    C   35  py     Ryd( 4p)     0.00444       1.17411
   860    C   35  py     Ryd( 3p)     0.00510       0.60231
   861    C   35  py     Ryd( 5p)     0.03256       3.17732
   862    C   35  pz     Val( 2p)     0.92229       0.23763
   863    C   35  pz     Ryd( 4p)     0.14357       1.52676
   864    C   35  pz     Ryd( 3p)     0.00027       1.19083
   865    C   35  pz     Ryd( 5p)     0.00122       3.32989
   866    C   35  dxy    Ryd( 3d)     0.00228       2.31558
   867    C   35  dxy    Ryd( 4d)     0.00044       2.52106
   868    C   35  dxy    Ryd( 5d)     0.00004       7.51316
   869    C   35  dxz    Ryd( 4d)     0.00191       2.29009
   870    C   35  dxz    Ryd( 3d)     0.00021       2.22846
   871    C   35  dxz    Ryd( 5d)     0.00012       7.63192
   872    C   35  dyz    Ryd( 3d)     0.00155       1.96608
   873    C   35  dyz    Ryd( 4d)     0.00019       2.04404
   874    C   35  dyz    Ryd( 5d)     0.00012       7.57722
   875    C   35  dx2y2  Ryd( 3d)     0.00017       1.48723
   876    C   35  dx2y2  Ryd( 4d)     0.00041       1.98947
   877    C   35  dx2y2  Ryd( 5d)     0.00004       7.44566
   878    C   35  dz2    Ryd( 4d)     0.00228       2.82650
   879    C   35  dz2    Ryd( 3d)     0.00042       2.48663
   880    C   35  dz2    Ryd( 5d)     0.00018       7.61249
   881    C   35  f(0)   Ryd( 4f)     0.00010       4.72796
   882    C   35  f(C1)  Ryd( 4f)     0.00005       4.57173
   883    C   35  f(S1)  Ryd( 4f)     0.00005       4.38899
   884    C   35  f(C2)  Ryd( 4f)     0.00002       3.92238
   885    C   35  f(S2)  Ryd( 4f)     0.00010       4.39780
   886    C   35  f(C3)  Ryd( 4f)     0.00010       4.04568
   887    C   35  f(S3)  Ryd( 4f)     0.05276       3.76921

   888    H   36  S      Val( 1S)     0.72954       0.34193
   889    H   36  S      Ryd( 4S)     0.02581       2.43432
   890    H   36  S      Ryd( 3S)     0.00024       1.10447
   891    H   36  S      Ryd( 2S)     0.00026       0.65977
   892    H   36  px     Ryd( 2p)     0.00021       1.88396
   893    H   36  px     Ryd( 3p)     0.00007       4.57978
   894    H   36  py     Ryd( 2p)     0.00012       1.93733
   895    H   36  py     Ryd( 3p)     0.00008       4.50940
   896    H   36  pz     Ryd( 2p)     0.00022       1.76600
   897    H   36  pz     Ryd( 3p)     0.00007       4.77204

   898    H   37  S      Val( 1S)     0.79535       0.23506
   899    H   37  S      Ryd( 3S)     0.01575       2.24307
   900    H   37  S      Ryd( 2S)     0.00083       1.25892
   901    H   37  px     Ryd( 2p)     0.00022       1.56828
   902    H   37  px     Ryd( 3p)     0.00005       4.29543
   903    H   37  py     Ryd( 2p)     0.00011       2.95650
   904    H   37  py     Ryd( 3p)     0.00003       3.06043
   905    H   37  pz     Ryd( 2p)     0.00067       2.25888
   906    H   37  pz     Ryd( 3p)     0.00010       5.32450

   907    H   38  S      Val( 1S)     0.81048       0.11009
   908    H   38  S      Ryd( 3S)     0.00069       2.33426
   909    H   38  S      Ryd( 2S)     0.00125       1.19578
   910    H   38  px     Ryd( 2p)     0.00022       1.61470
   911    H   38  px     Ryd( 3p)     0.00006       4.29176
   912    H   38  py     Ryd( 2p)     0.00013       1.87586
   913    H   38  py     Ryd( 3p)     0.00101       2.83792
   914    H   38  pz     Ryd( 2p)     0.00022       3.88063
   915    H   38  pz     Ryd( 3p)     0.05701       4.75709

   916    H   39  S      Val( 1S)     0.72534       0.43906
   917    H   39  S      Ryd( 4S)     0.02488       2.49088
   918    H   39  S      Ryd( 3S)     0.00020       1.15882
   919    H   39  S      Ryd( 2S)     0.00018       0.77586
   920    H   39  px     Ryd( 2p)     0.00022       1.81167
   921    H   39  px     Ryd( 3p)     0.00009       4.64762
   922    H   39  py     Ryd( 2p)     0.00014       1.86630
   923    H   39  py     Ryd( 3p)     0.00008       4.55898
   924    H   39  pz     Ryd( 2p)     0.00024       2.00658
   925    H   39  pz     Ryd( 3p)     0.00005       4.54783

 WARNING:  1 low occupancy (<1.9990e) core orbital  found on  C   26
           1 low occupancy (<1.9990e) core orbital  found on  C   27
           1 low occupancy (<1.9990e) core orbital  found on  C   32
           1 low occupancy (<1.9990e) core orbital  found on  C   33
           1 low occupancy (<1.9990e) core orbital  found on  C   34
           1 low occupancy (<1.9990e) core orbital  found on  C   35

 WARNING:  Population inversion found on atom  C    1
           Population inversion found on atom  C    2
           Population inversion found on atom  C    3
           Population inversion found on atom  C    4
           Population inversion found on atom  C    5
           Population inversion found on atom  C    6
           Population inversion found on atom  C    7
           Population inversion found on atom  C    8
           Population inversion found on atom  C    9
           Population inversion found on atom  C   10
           Population inversion found on atom  C   11
           Population inversion found on atom  H   12
           Population inversion found on atom  H   13
           Population inversion found on atom  H   14
           Population inversion found on atom  H   15
           Population inversion found on atom  H   16
           Population inversion found on atom  H   17
           Population inversion found on atom  H   18
           Population inversion found on atom  H   19
           Population inversion found on atom  H   20
           Population inversion found on atom  H   21
           Population inversion found on atom  H   22
           Population inversion found on atom  H   23
           Population inversion found on atom  C   24
           Population inversion found on atom  C   25
           Population inversion found on atom  C   26
           Population inversion found on atom  C   27
           Population inversion found on atom  H   28
           Population inversion found on atom  H   29
           Population inversion found on atom  H   30
           Population inversion found on atom  H   31
           Population inversion found on atom  C   32
           Population inversion found on atom  C   33
           Population inversion found on atom  C   34
           Population inversion found on atom  C   35
           Population inversion found on atom  H   36
           Population inversion found on atom  H   37
           Population inversion found on atom  H   38
           Population inversion found on atom  H   39


 Summary of Natural Population Analysis:                  
                                                          
                                       Natural Population 
                Natural  -----------------------------------------------
    Atom  No    Charge         Core      Valence    Rydberg      Total
 -----------------------------------------------------------------------
      C    1   -0.10702      1.99902     3.97650    0.13150     6.10702
      C    2   -0.04953      1.99901     3.99417    0.05634     6.04953
      C    3   -0.36853      1.99929     4.33092    0.03832     6.36853
      C    4   -0.17494      1.99928     4.14512    0.03054     6.17494
      C    5   -0.33058      1.99929     4.30218    0.02911     6.33058
      C    6   -0.33976      1.99930     4.31231    0.02814     6.33976
      C    7   -0.03655      1.99902     4.00924    0.02829     6.03655
      C    8   -0.03893      1.99901     4.00747    0.03244     6.03893
      C    9   -0.34560      1.99930     4.31087    0.03543     6.34560
      C   10   -0.23290      1.99933     4.15839    0.07517     6.23290
      C   11   -0.79909      1.99930     2.96052    1.83927     6.79909
      H   12    0.17873      0.00000     0.81785    0.00342     0.82127
      H   13    0.18874      0.00000     0.80657    0.00469     0.81126
      H   14    0.16785      0.00000     0.82858    0.00357     0.83215
      H   15    0.17006      0.00000     0.82777    0.00218     0.82994
      H   16    0.18550      0.00000     0.81086    0.00364     0.81450
      H   17    0.17734      0.00000     0.82046    0.00221     0.82266
      H   18    0.18116      0.00000     0.81664    0.00220     0.81884
      H   19    0.17525      0.00000     0.82049    0.00426     0.82475
      H   20    0.18081      0.00000     0.81673    0.00245     0.81919
      H   21    0.16684      0.00000     0.82858    0.00458     0.83316
      H   22    0.14395      0.00000     0.83770    0.01834     0.85605
      H   23    0.16384      0.00000     0.81879    0.01737     0.83616
      C   24   -0.43259      1.99909     4.21970    0.21380     6.43259
      C   25   -0.83001      1.99920     3.39492    1.43590     6.83001
      C   26   -0.36274      1.88852     3.84615    0.62807     6.36274
      C   27   -0.21984      1.98900     3.30758    0.92326     6.21984
      H   28    0.10416      0.00000     0.79495    0.10089     0.89584
      H   29    0.14516      0.00000     0.70369    0.15115     0.85484
      H   30    0.23153      0.00000     0.74541    0.02306     0.76847
      H   31    0.11571      0.00000     0.80678    0.07752     0.88429
      C   32   -0.10976      1.91420     3.87475    0.32081     6.10976
      C   33   -0.18900      1.98885     3.68127    0.51887     6.18900
      C   34   -0.19234      1.98931     3.40043    0.80260     6.19234
      C   35   -0.25072      1.98786     3.91273    0.35013     6.25072
      H   36    0.24337      0.00000     0.72954    0.02708     0.75663
      H   37    0.18688      0.00000     0.79535    0.01777     0.81312
      H   38    0.12893      0.00000     0.81048    0.06059     0.87107
      H   39    0.24860      0.00000     0.72534    0.02606     0.75140
 =======================================================================
   * Total *   -1.92602     37.74718    90.10782    8.07103   135.92602

                                 Natural Population      
 --------------------------------------------------------
   Core                      37.74718 ( 99.3347% of  38)
   Valence                   90.10782 ( 91.9468% of  98)
   Natural Minimal Basis    127.85500 ( 94.0110% of 136)
   Natural Rydberg Basis      8.07103 (  5.9346% of 136)
 --------------------------------------------------------

    Atom  No          Natural Electron Configuration
 ----------------------------------------------------------------------------
      C    1      [core]2S( 0.86)2p( 3.11)3S( 0.01)3p( 0.01)3d( 0.02)4p( 0.05)4d( 0.03)
      C    2      [core]2S( 0.87)2p( 3.13)3p( 0.01)3d( 0.01)4p( 0.03)4d( 0.01)
      C    3      [core]2S( 1.00)2p( 3.33)3p( 0.01)4S( 0.01)3d( 0.01)
      C    4      [core]2S( 0.96)2p( 3.19)3d( 0.01)4p( 0.01)
      C    5      [core]2S( 1.00)2p( 3.30)3d( 0.01)4p( 0.01)
      C    6      [core]2S( 1.00)2p( 3.32)3d( 0.01)4p( 0.01)
      C    7      [core]2S( 0.87)2p( 3.14)3d( 0.01)4p( 0.02)
      C    8      [core]2S( 0.87)2p( 3.13)3d( 0.01)4p( 0.01)
      C    9      [core]2S( 1.00)2p( 3.32)3d( 0.01)4p( 0.01)
      C   10      [core]2S( 0.96)2p( 3.20)3d( 0.04)4p( 0.03)
      C   11      [core]2S( 1.00)2p( 1.77)3S( 0.02)3p( 0.65)3d( 0.08)4p( 0.64)4d( 0.01)5p( 0.65)
      H   12            1S( 0.82)
      H   13            1S( 0.81)
      H   14            1S( 0.83)
      H   15            1S( 0.83)
      H   16            1S( 0.81)
      H   17            1S( 0.82)
      H   18            1S( 0.82)
      H   19            1S( 0.82)
      H   20            1S( 0.82)
      H   21            1S( 0.83)
      H   22            1S( 0.84)2p( 0.01)3S( 0.01)
      H   23            1S( 0.82)2p( 0.02)
      C   24      [core]2S( 0.97)2p( 3.25)3S( 0.02)3p( 0.04)4S( 0.04)3d( 0.06)4p( 0.01)4d( 0.03)4f( 0.01)
      C   25      [core]2S( 0.94)2p( 2.07)3S( 0.05)3p( 1.28)4S( 0.01)3d( 0.05)4p( 0.16)4d( 0.03)5p( 0.14)4f( 0.10)
      C   26      [core]2S( 0.94)2p( 1.97)3S( 0.03)3p( 1.20)4S( 0.04)3d( 0.06)4p( 0.07)4d( 0.01)5p( 0.13)
      C   27      [core]2S( 0.90)2p( 1.66)3p( 1.06)4S( 0.04)3d( 0.01)4p( 0.41)5S( 0.04)4d( 0.01)5p( 0.10)
      H   28            1S( 0.79)3S( 0.02)3p( 0.08)
      H   29            1S( 0.70)2S( 0.03)2p( 0.08)3p( 0.04)
      H   30            1S( 0.75)2S( 0.02)
      H   31            1S( 0.81)3p( 0.07)
      C   32      [core]2S( 0.91)2p( 2.97)3S( 0.03)3p( 0.01)4S( 0.04)3d( 0.01)4p( 0.17)4d( 0.01)5p( 0.06)
      C   33      [core]2S( 0.93)2p( 2.75)3p( 0.18)4S( 0.01)3d( 0.01)4p( 0.18)5S( 0.04)5p( 0.10)
      C   34      [core]2S( 0.91)2p( 2.49)3S( 0.01)3p( 0.22)4S( 0.02)3d( 0.01)4p( 0.44)5S( 0.04)5p( 0.06)
      C   35      [core]2S( 0.94)2p( 1.94)3S( 0.01)3p( 1.04)4S( 0.01)4p( 0.15)5S( 0.04)4d( 0.01)5p( 0.07)4f( 0.05)
      H   36            1S( 0.73)4S( 0.03)
      H   37            1S( 0.80)3S( 0.02)
      H   38            1S( 0.81)3p( 0.06)
      H   39            1S( 0.73)4S( 0.02)


 NATURAL BOND ORBITAL ANALYSIS:

 A bond orbital with an occupancy of  2.22924 electrons was found!
 Please check you input data.
 Leave Link  607 at Tue Apr 10 11:41:04 2012, MaxMem=12884901888 cpu:    4010.4
 (Enter /share/apps/g09/l9999.exe)
 1\1\GINC-COMPUTE-0-0\SP\RMP2-FC\6-311++G(3df,2p)\C19H20\MARAT\10-Apr-2
 012\0\\#p mp2/6-311++G(3df,2p) pop(nboread)\\\0,1\C,0,-1.97042,0.70506
 ,-0.40465\C,0,-1.97042,-0.70506,-0.40465\C,0,-0.68031,-1.44372,-0.1812
 3\C,0,-0.10443,-1.29879,1.24696\C,0,-0.50356,0.,1.94357\C,0,1.41584,-1
 .52565,1.27229\C,0,2.23706,-0.70478,0.30845\C,0,2.23706,0.70478,0.3084
 5\C,0,1.41584,1.52565,1.27229\C,0,-0.10443,1.29879,1.24696\C,0,-0.6803
 1,1.44372,-0.18123\H,0,-0.81725,-2.51164,-0.4049\H,0,0.06742,-1.08104,
 -0.90397\H,0,-0.5421,-2.10638,1.8565\H,0,-0.05995,0.,2.95231\H,0,-1.59
 21,0.,2.09755\H,0,1.61411,-2.58772,1.06377\H,0,1.76532,-1.35048,2.3042
 4\H,0,1.61411,2.58772,1.06377\H,0,1.76532,1.35048,2.30424\H,0,-0.5421,
 2.10638,1.8565\H,0,0.06742,1.08104,-0.90397\H,0,-0.81725,2.51164,-0.40
 49\C,0,-3.17132,-1.38352,-0.59358\C,0,-4.36772,-0.69442,-0.78518\C,0,-
 4.36772,0.69442,-0.78518\C,0,-3.17132,1.38352,-0.59358\H,0,-3.16682,-2
 .47443,-0.59242\H,0,-5.29556,-1.2445,-0.93443\H,0,-5.29556,1.2445,-0.9
 3443\H,0,-3.16682,2.47443,-0.59242\C,0,3.82106,-0.69423,-1.54619\C,0,3
 .03018,-1.37483,-0.6262\C,0,3.03018,1.37483,-0.6262\C,0,3.82106,0.6942
 3,-1.54619\H,0,4.428,-1.24931,-2.25951\H,0,3.02399,-2.46565,-0.62884\H
 ,0,3.02399,2.46565,-0.62884\H,0,4.428,1.24931,-2.25951\\Version=EM64L-
 G09RevB.01\State=1-A'\HF=-731.3690036\MP2=-734.4496966\RMSD=3.915e-09\
 PG=CS [SG(C1H2),X(C18H18)]\\@


 IT CANNOT BE MY BEAUTY, FOR I HAVE NONE; AND IT CANNOT BE MY WIT,
 FOR HE HAS NOT ENOUGH TO KNOW THAT I HAVE ANY.
 -- CATHARINE SEDLEY, PUZZLED ABOUT WHY SHE WAS MISTRESS TO JAMES II
 Job cpu time:  1 days 21 hours 34 minutes  6.2 seconds.
 File lengths (MBytes):  RWF=    486 Int=      0 D2E=      0 Chk=     38 Scr=      1
 Normal termination of Gaussian 09 at Tue Apr 10 11:41:11 2012.
