                                                                        
Freq      UTPSSKCIS                                                   Aug-CC-pVTZ         
Number of atoms                            I                5
Info1-9                                    I   N=           9
           5           5        1002           0           0         100
           6          18           2
Charge                                     I                0
Multiplicity                               I                2
Number of electrons                        I               41
Number of alpha electrons                  I               21
Number of beta electrons                   I               20
Number of basis functions                  I              230
Number of independent functions            I              230
Number of point charges in /Mol/           I                0
Number of translation vectors              I                0
Atomic numbers                             I   N=           5
           8           6           9           9           9
Nuclear charges                            R   N=           5
  8.00000000E+00  6.00000000E+00  9.00000000E+00  9.00000000E+00  9.00000000E+00
Current cartesian coordinates              R   N=          15
  1.42727132E+00 -3.71210630E-02  2.21593865E+00  8.63558664E-03 -1.20159394E-03
  9.54044768E-02 -1.48953116E+00 -2.05398325E+00 -1.36725476E-01  1.70992855E+00
  3.38646103E-02 -1.82560775E+00 -1.49484007E+00  2.05391620E+00 -7.09930113E-02
Force Field                                I                0
Int Atom Types                             I   N=           5
           0           0           0           0           0
MM charges                                 R   N=           5
  0.00000000E+00  0.00000000E+00  0.00000000E+00  0.00000000E+00  0.00000000E+00
Integer atomic weights                     I   N=           5
          16          12          19          19          19
Real atomic weights                        R   N=           5
  1.59949146E+01  1.20000000E+01  1.89984032E+01  1.89984032E+01  1.89984032E+01
Atom fragment info                         I   N=           5
           0           0           0           0           0
Atom residue num                           I   N=           5
           0           0           0           0           0
Nuclear spins                              I   N=           5
           0           0           1           1           1
Nuclear ZEff                               R   N=           5
 -5.60000000E+00 -3.60000000E+00 -6.75000000E+00 -6.75000000E+00 -6.75000000E+00
Nuclear QMom                               R   N=           5
  0.00000000E+00  0.00000000E+00  0.00000000E+00  0.00000000E+00  0.00000000E+00
Nuclear GFac                               R   N=           5
  0.00000000E+00  0.00000000E+00  2.62886700E+00  2.62886700E+00  2.62886700E+00
MicOpt                                     I   N=           5
          -1          -1          -1          -1          -1
Number of contracted shells                I               70
Number of primitive shells                 I              135
Pure/Cartesian d shells                    I                0
Pure/Cartesian f shells                    I                0
Highest angular momentum                   I                3
Largest degree of contraction              I                7
Shell types                                I   N=          70
           0           0           0           0           0           1
           1           1           1          -2          -2          -2
          -3          -3           0           0           0           0
           0           1           1           1           1          -2
          -2          -2          -3          -3           0           0
           0           0           0           1           1           1
           1          -2          -2          -2          -3          -3
           0           0           0           0           0           1
           1           1           1          -2          -2          -2
          -3          -3           0           0           0           0
           0           1           1           1           1          -2
          -2          -2          -3          -3
Number of primitives per shell             I   N=          70
           7           6           1           1           1           3
           1           1           1           1           1           1
           1           1           7           6           1           1
           1           3           1           1           1           1
           1           1           1           1           7           6
           1           1           1           3           1           1
           1           1           1           1           1           1
           7           6           1           1           1           3
           1           1           1           1           1           1
           1           1           7           6           1           1
           1           3           1           1           1           1
           1           1           1           1
Shell to atom map                          I   N=          70
           1           1           1           1           1           1
           1           1           1           1           1           1
           1           1           2           2           2           2
           2           2           2           2           2           2
           2           2           2           2           3           3
           3           3           3           3           3           3
           3           3           3           3           3           3
           4           4           4           4           4           4
           4           4           4           4           4           4
           4           4           5           5           5           5
           5           5           5           5           5           5
           5           5           5           5
Primitive exponents                        R   N=         135
  1.53300000E+04  2.29900000E+03  5.22400000E+02  1.47300000E+02  4.75500000E+01
  1.67600000E+01  6.20700000E+00  5.22400000E+02  1.47300000E+02  4.75500000E+01
  1.67600000E+01  6.20700000E+00  6.88200000E-01  1.75200000E+00  2.38400000E-01
  7.37600000E-02  3.44600000E+01  7.74900000E+00  2.28000000E+00  7.15600000E-01
  2.14000000E-01  5.97400000E-02  2.31400000E+00  6.45000000E-01  2.14000000E-01
  1.42800000E+00  5.00000000E-01  8.23600000E+03  1.23500000E+03  2.80800000E+02
  7.92700000E+01  2.55900000E+01  8.99700000E+00  3.31900000E+00  2.80800000E+02
  7.92700000E+01  2.55900000E+01  8.99700000E+00  3.31900000E+00  3.64300000E-01
  9.05900000E-01  1.28500000E-01  4.40200000E-02  1.87100000E+01  4.13300000E+00
  1.20000000E+00  3.82700000E-01  1.20900000E-01  3.56900000E-02  1.09700000E+00
  3.18000000E-01  1.00000000E-01  7.61000000E-01  2.68000000E-01  1.95000000E+04
  2.92300000E+03  6.64500000E+02  1.87500000E+02  6.06200000E+01  2.14200000E+01
  7.95000000E+00  6.64500000E+02  1.87500000E+02  6.06200000E+01  2.14200000E+01
  7.95000000E+00  8.81500000E-01  2.25700000E+00  3.04100000E-01  9.15800000E-02
  4.38800000E+01  9.92600000E+00  2.93000000E+00  9.13200000E-01  2.67200000E-01
  7.36100000E-02  3.10700000E+00  8.55000000E-01  2.92000000E-01  1.91700000E+00
  7.24000000E-01  1.95000000E+04  2.92300000E+03  6.64500000E+02  1.87500000E+02
  6.06200000E+01  2.14200000E+01  7.95000000E+00  6.64500000E+02  1.87500000E+02
  6.06200000E+01  2.14200000E+01  7.95000000E+00  8.81500000E-01  2.25700000E+00
  3.04100000E-01  9.15800000E-02  4.38800000E+01  9.92600000E+00  2.93000000E+00
  9.13200000E-01  2.67200000E-01  7.36100000E-02  3.10700000E+00  8.55000000E-01
  2.92000000E-01  1.91700000E+00  7.24000000E-01  1.95000000E+04  2.92300000E+03
  6.64500000E+02  1.87500000E+02  6.06200000E+01  2.14200000E+01  7.95000000E+00
  6.64500000E+02  1.87500000E+02  6.06200000E+01  2.14200000E+01  7.95000000E+00
  8.81500000E-01  2.25700000E+00  3.04100000E-01  9.15800000E-02  4.38800000E+01
  9.92600000E+00  2.93000000E+00  9.13200000E-01  2.67200000E-01  7.36100000E-02
  3.10700000E+00  8.55000000E-01  2.92000000E-01  1.91700000E+00  7.24000000E-01
Contraction coefficients                   R   N=         135
  5.19808943E-04  4.02025621E-03  2.07128267E-02  8.10105536E-02  2.35962985E-01
  4.42653446E-01  3.57064423E-01 -4.42115008E-05 -1.22591041E-03 -1.05517725E-02
 -6.74452633E-02 -1.71198607E-01  1.07329856E+00  1.00000000E+00  1.00000000E+00
  1.00000000E+00  4.11634896E-02  2.57762836E-01  8.02419274E-01  1.00000000E+00
  1.00000000E+00  1.00000000E+00  1.00000000E+00  1.00000000E+00  1.00000000E+00
  1.00000000E+00  1.00000000E+00  5.41978320E-04  4.19287382E-03  2.15221621E-02
  8.35343220E-02  2.39582846E-01  4.42852842E-01  3.51799562E-01 -5.94922494E-05
 -1.14815831E-03 -1.00191374E-02 -6.12194923E-02 -1.73269854E-01  1.07291519E+00
  1.00000000E+00  1.00000000E+00  1.00000000E+00  3.94263872E-02  2.44088985E-01
  8.15492009E-01  1.00000000E+00  1.00000000E+00  1.00000000E+00  1.00000000E+00
  1.00000000E+00  1.00000000E+00  1.00000000E+00  1.00000000E+00  5.19002444E-04
  4.01578135E-03  2.06774611E-02  8.08690170E-02  2.35807546E-01  4.42582306E-01
  3.56962867E-01 -3.73598087E-05 -1.27747230E-03 -1.08220140E-02 -7.00482089E-02
 -1.69746608E-01  1.07302661E+00  1.00000000E+00  1.00000000E+00  1.00000000E+00
  4.19046207E-02  2.62697842E-01  7.97759373E-01  1.00000000E+00  1.00000000E+00
  1.00000000E+00  1.00000000E+00  1.00000000E+00  1.00000000E+00  1.00000000E+00
  1.00000000E+00  5.19002444E-04  4.01578135E-03  2.06774611E-02  8.08690170E-02
  2.35807546E-01  4.42582306E-01  3.56962867E-01 -3.73598087E-05 -1.27747230E-03
 -1.08220140E-02 -7.00482089E-02 -1.69746608E-01  1.07302661E+00  1.00000000E+00
  1.00000000E+00  1.00000000E+00  4.19046207E-02  2.62697842E-01  7.97759373E-01
  1.00000000E+00  1.00000000E+00  1.00000000E+00  1.00000000E+00  1.00000000E+00
  1.00000000E+00  1.00000000E+00  1.00000000E+00  5.19002444E-04  4.01578135E-03
  2.06774611E-02  8.08690170E-02  2.35807546E-01  4.42582306E-01  3.56962867E-01
 -3.73598087E-05 -1.27747230E-03 -1.08220140E-02 -7.00482089E-02 -1.69746608E-01
  1.07302661E+00  1.00000000E+00  1.00000000E+00  1.00000000E+00  4.19046207E-02
  2.62697842E-01  7.97759373E-01  1.00000000E+00  1.00000000E+00  1.00000000E+00
  1.00000000E+00  1.00000000E+00  1.00000000E+00  1.00000000E+00  1.00000000E+00
Coordinates of each shell                  R   N=         210
  1.42727132E+00 -3.71210630E-02  2.21593865E+00  1.42727132E+00 -3.71210630E-02
  2.21593865E+00  1.42727132E+00 -3.71210630E-02  2.21593865E+00  1.42727132E+00
 -3.71210630E-02  2.21593865E+00  1.42727132E+00 -3.71210630E-02  2.21593865E+00
  1.42727132E+00 -3.71210630E-02  2.21593865E+00  1.42727132E+00 -3.71210630E-02
  2.21593865E+00  1.42727132E+00 -3.71210630E-02  2.21593865E+00  1.42727132E+00
 -3.71210630E-02  2.21593865E+00  1.42727132E+00 -3.71210630E-02  2.21593865E+00
  1.42727132E+00 -3.71210630E-02  2.21593865E+00  1.42727132E+00 -3.71210630E-02
  2.21593865E+00  1.42727132E+00 -3.71210630E-02  2.21593865E+00  1.42727132E+00
 -3.71210630E-02  2.21593865E+00  8.63558664E-03 -1.20159394E-03  9.54044768E-02
  8.63558664E-03 -1.20159394E-03  9.54044768E-02  8.63558664E-03 -1.20159394E-03
  9.54044768E-02  8.63558664E-03 -1.20159394E-03  9.54044768E-02  8.63558664E-03
 -1.20159394E-03  9.54044768E-02  8.63558664E-03 -1.20159394E-03  9.54044768E-02
  8.63558664E-03 -1.20159394E-03  9.54044768E-02  8.63558664E-03 -1.20159394E-03
  9.54044768E-02  8.63558664E-03 -1.20159394E-03  9.54044768E-02  8.63558664E-03
 -1.20159394E-03  9.54044768E-02  8.63558664E-03 -1.20159394E-03  9.54044768E-02
  8.63558664E-03 -1.20159394E-03  9.54044768E-02  8.63558664E-03 -1.20159394E-03
  9.54044768E-02  8.63558664E-03 -1.20159394E-03  9.54044768E-02 -1.48953116E+00
 -2.05398325E+00 -1.36725476E-01 -1.48953116E+00 -2.05398325E+00 -1.36725476E-01
 -1.48953116E+00 -2.05398325E+00 -1.36725476E-01 -1.48953116E+00 -2.05398325E+00
 -1.36725476E-01 -1.48953116E+00 -2.05398325E+00 -1.36725476E-01 -1.48953116E+00
 -2.05398325E+00 -1.36725476E-01 -1.48953116E+00 -2.05398325E+00 -1.36725476E-01
 -1.48953116E+00 -2.05398325E+00 -1.36725476E-01 -1.48953116E+00 -2.05398325E+00
 -1.36725476E-01 -1.48953116E+00 -2.05398325E+00 -1.36725476E-01 -1.48953116E+00
 -2.05398325E+00 -1.36725476E-01 -1.48953116E+00 -2.05398325E+00 -1.36725476E-01
 -1.48953116E+00 -2.05398325E+00 -1.36725476E-01 -1.48953116E+00 -2.05398325E+00
 -1.36725476E-01  1.70992855E+00  3.38646103E-02 -1.82560775E+00  1.70992855E+00
  3.38646103E-02 -1.82560775E+00  1.70992855E+00  3.38646103E-02 -1.82560775E+00
  1.70992855E+00  3.38646103E-02 -1.82560775E+00  1.70992855E+00  3.38646103E-02
 -1.82560775E+00  1.70992855E+00  3.38646103E-02 -1.82560775E+00  1.70992855E+00
  3.38646103E-02 -1.82560775E+00  1.70992855E+00  3.38646103E-02 -1.82560775E+00
  1.70992855E+00  3.38646103E-02 -1.82560775E+00  1.70992855E+00  3.38646103E-02
 -1.82560775E+00  1.70992855E+00  3.38646103E-02 -1.82560775E+00  1.70992855E+00
  3.38646103E-02 -1.82560775E+00  1.70992855E+00  3.38646103E-02 -1.82560775E+00
  1.70992855E+00  3.38646103E-02 -1.82560775E+00 -1.49484007E+00  2.05391620E+00
 -7.09930113E-02 -1.49484007E+00  2.05391620E+00 -7.09930113E-02 -1.49484007E+00
  2.05391620E+00 -7.09930113E-02 -1.49484007E+00  2.05391620E+00 -7.09930113E-02
 -1.49484007E+00  2.05391620E+00 -7.09930113E-02 -1.49484007E+00  2.05391620E+00
 -7.09930113E-02 -1.49484007E+00  2.05391620E+00 -7.09930113E-02 -1.49484007E+00
  2.05391620E+00 -7.09930113E-02 -1.49484007E+00  2.05391620E+00 -7.09930113E-02
 -1.49484007E+00  2.05391620E+00 -7.09930113E-02 -1.49484007E+00  2.05391620E+00
 -7.09930113E-02 -1.49484007E+00  2.05391620E+00 -7.09930113E-02 -1.49484007E+00
  2.05391620E+00 -7.09930113E-02 -1.49484007E+00  2.05391620E+00 -7.09930113E-02
Constraint Structure                       R   N=          15
  1.42727132E+00 -3.71210630E-02  2.21593865E+00  8.63558664E-03 -1.20159394E-03
  9.54044768E-02 -1.48953116E+00 -2.05398325E+00 -1.36725476E-01  1.70992855E+00
  3.38646103E-02 -1.82560775E+00 -1.49484007E+00  2.05391620E+00 -7.09930113E-02
Num ILSW                                   I              100
ILSW                                       I   N=         100
           1           0           0           1           2           0
           0           0           0           0        2520          -1
           0           0           0           0           2           0
           0           0           0           0           1           0
           1           0           0           0           0           0
           0           0      100000           0          -1           0
           0           0           0           0           0           0
           0           0           0           1           0           0
           0           0           1           0           0           0
           0           0           4          40           0           0
           0           0           0           0           0           0
           0           0           0           0           0           0
           0           0           0           0           0           0
           0           0           0           0           0           0
           0           0           0           0           0           0
           0           0           0           0           0           0
           0           0           0           0
Num RLSW                                   I               40
RLSW                                       R   N=          40
  1.00000000E+00  1.00000000E+00  1.00000000E+00  1.00000000E+00  0.00000000E+00
  0.00000000E+00  0.00000000E+00  1.00000000E+00  0.00000000E+00  0.00000000E+00
  0.00000000E+00  0.00000000E+00  1.00000000E+00  0.00000000E+00  0.00000000E+00
  0.00000000E+00  0.00000000E+00  1.00000000E+00  0.00000000E+00  0.00000000E+00
  0.00000000E+00  0.00000000E+00  1.00000000E+00  0.00000000E+00  0.00000000E+00
  0.00000000E+00  0.00000000E+00  1.00000000E+00  0.00000000E+00  0.00000000E+00
  0.00000000E+00  0.00000000E+00  1.00000000E+00  0.00000000E+00  0.00000000E+00
  0.00000000E+00  0.00000000E+00  0.00000000E+00  1.00000000E+00  1.00000000E+00
MxBond                                     I                4
NBond                                      I   N=           5
           1           4           1           1           1
IBond                                      I   N=          20
           2           0           0           0           1           3
           4           5           2           0           0           0
           2           0           0           0           2           0
           0           0
RBond                                      R   N=          20
  1.00000000E+00  0.00000000E+00  0.00000000E+00  0.00000000E+00  1.00000000E+00
  3.00000000E+00  3.00000000E+00  3.00000000E+00  3.00000000E+00  0.00000000E+00
  0.00000000E+00  0.00000000E+00  3.00000000E+00  0.00000000E+00  0.00000000E+00
  0.00000000E+00  3.00000000E+00  0.00000000E+00  0.00000000E+00  0.00000000E+00
Virial Ratio                               R      2.004387814777294E+00
SCF Energy                                 R     -4.130176568352542E+02
Total Energy                               R     -4.130176568352542E+02
S**2                                       R      7.525608206575321E-01
S**2 after annihilation                    R      7.500049944919088E-01
RMS Force                                  R      2.284513941507378E-04
RMS Density                                R      2.871756931359901E-09
External E-field                           R   N=          35
  0.00000000E+00  0.00000000E+00  0.00000000E+00  0.00000000E+00  0.00000000E+00
  0.00000000E+00  0.00000000E+00  0.00000000E+00  0.00000000E+00  0.00000000E+00
  0.00000000E+00  0.00000000E+00  0.00000000E+00  0.00000000E+00  0.00000000E+00
  0.00000000E+00  0.00000000E+00  0.00000000E+00  0.00000000E+00  0.00000000E+00
  0.00000000E+00  0.00000000E+00  0.00000000E+00  0.00000000E+00  0.00000000E+00
  0.00000000E+00  0.00000000E+00  0.00000000E+00  0.00000000E+00  0.00000000E+00
  0.00000000E+00  0.00000000E+00  0.00000000E+00  0.00000000E+00  0.00000000E+00
IOpCl                                      I                1
IROHF                                      I                0
Alpha Orbital Energies                     R   N=         230
 -2.44912743E+01 -2.44743936E+01 -2.44742051E+01 -1.90167396E+01 -1.03031768E+01
 -1.26738502E+00 -1.18586007E+00 -1.17432454E+00 -1.03358710E+00 -6.59925299E-01
 -5.85068435E-01 -5.73612116E-01 -5.37357280E-01 -4.54887676E-01 -4.43727183E-01
 -4.27443716E-01 -4.12880467E-01 -4.10799410E-01 -3.86610959E-01 -3.83892157E-01
 -3.40041088E-01 -5.46650239E-03  2.91108177E-02  3.11862024E-02  3.21840486E-02
  8.40401868E-02  9.11826066E-02  9.60284854E-02  1.07923406E-01  1.12848177E-01
  1.16698893E-01  1.32559519E-01  1.43259797E-01  1.68404249E-01  1.73201968E-01
  1.89526907E-01  1.92111256E-01  2.03495881E-01  2.06123436E-01  2.07346397E-01
  2.12545745E-01  2.53278931E-01  2.83625739E-01  2.92001134E-01  2.94893009E-01
  3.12446808E-01  3.24176220E-01  3.27470548E-01  3.87288367E-01  3.91952846E-01
  4.76297592E-01  5.26535187E-01  5.30126910E-01  5.60893825E-01  6.01110636E-01
  6.05117733E-01  6.56426817E-01  6.62753207E-01  7.31789166E-01  7.54630575E-01
  7.57623954E-01  7.72660480E-01  7.89142391E-01  7.94738208E-01  8.20823489E-01
  8.63066185E-01  8.65575463E-01  8.66043576E-01  8.81156795E-01  8.90653885E-01
  9.07688678E-01  9.23774633E-01  9.53308913E-01  9.60183841E-01  9.80536986E-01
  9.98909085E-01  1.00416082E+00  1.02964534E+00  1.05019400E+00  1.11584386E+00
  1.19052171E+00  1.19594864E+00  1.26327264E+00  1.26552828E+00  1.27015354E+00
  1.33540522E+00  1.34945811E+00  1.36350317E+00  1.42873837E+00  1.45355023E+00
  1.46371267E+00  1.46580758E+00  1.48134493E+00  1.48872112E+00  1.51820718E+00
  1.53328870E+00  1.54371063E+00  1.70300181E+00  1.92468026E+00  1.94415803E+00
  1.95853685E+00  1.98243469E+00  1.99875380E+00  2.01727598E+00  2.04921443E+00
  2.14055458E+00  2.21800435E+00  2.23133671E+00  2.24517018E+00  2.30733683E+00
  2.31139429E+00  2.40028602E+00  2.40760078E+00  2.41865236E+00  2.46799121E+00
  2.47457249E+00  2.51451181E+00  2.51873561E+00  2.53450127E+00  2.55274924E+00
  2.56435542E+00  2.57582411E+00  2.62339888E+00  2.66092884E+00  2.67417860E+00
  2.70715005E+00  2.72189277E+00  2.75813709E+00  2.80993664E+00  2.84516478E+00
  2.89654880E+00  2.92668399E+00  2.96324485E+00  2.97457799E+00  3.00273307E+00
  3.02285573E+00  3.05117019E+00  3.06496724E+00  3.12273599E+00  3.13667372E+00
  3.25369193E+00  3.26650791E+00  3.28272491E+00  3.30084848E+00  3.31449784E+00
  3.36217855E+00  3.45447680E+00  3.47857747E+00  3.52421908E+00  3.52814380E+00
  3.59780866E+00  3.60606121E+00  3.71236937E+00  3.71980237E+00  3.75694327E+00
  3.86530256E+00  3.96985822E+00  4.05247996E+00  4.07031381E+00  4.22659641E+00
  4.23335670E+00  4.26571608E+00  4.28258537E+00  4.30679530E+00  4.35542475E+00
  4.49713534E+00  4.51320938E+00  4.98138139E+00  5.00429336E+00  5.04418346E+00
  5.07227911E+00  5.09887969E+00  5.14297184E+00  5.24146959E+00  5.98185546E+00
  6.04373894E+00  6.05372411E+00  6.27492652E+00  6.32604491E+00  6.39897187E+00
  6.47844633E+00  6.54295315E+00  6.56598575E+00  6.59762087E+00  6.61794947E+00
  6.67862873E+00  6.95906445E+00  7.00805653E+00  7.01314731E+00  8.30235900E+00
  8.31170994E+00  8.32705486E+00  8.34359769E+00  8.35243204E+00  8.36017502E+00
  8.46021654E+00  8.46826231E+00  8.59826455E+00  8.59924821E+00  8.63040538E+00
  8.63785879E+00  8.64985853E+00  8.65206170E+00  8.69336493E+00  8.70187227E+00
  8.71791197E+00  8.72303736E+00  8.72393018E+00  8.74569004E+00  8.77537929E+00
  8.82825566E+00  8.83810008E+00  8.87811485E+00  8.88618311E+00  8.89629063E+00
  8.89761454E+00  8.93468464E+00  8.98603270E+00  8.99762669E+00  9.05397810E+00
  9.07556576E+00  9.15398256E+00  9.16858308E+00  9.35022056E+00  9.38328996E+00
  1.25233840E+01  1.37309387E+01  1.45237352E+01  1.45342353E+01  1.68589183E+01
Beta Orbital Energies                      R   N=         230
 -2.44881062E+01 -2.44738146E+01 -2.44736535E+01 -1.89948553E+01 -1.03038448E+01
 -1.26366597E+00 -1.18149118E+00 -1.17323047E+00 -9.88357981E-01 -6.54387185E-01
 -5.76412793E-01 -5.72511750E-01 -5.22257896E-01 -4.41817115E-01 -4.41220801E-01
 -4.15058234E-01 -4.10378655E-01 -4.00414362E-01 -3.85241602E-01 -3.24034063E-01
 -2.79628904E-01 -3.97956539E-03  3.20090452E-02  3.24073604E-02  3.24793899E-02
  8.76589919E-02  9.10298839E-02  9.71690004E-02  1.11883909E-01  1.13335790E-01
  1.18140301E-01  1.40588945E-01  1.44679571E-01  1.69451344E-01  1.84155677E-01
  1.92258292E-01  1.92960509E-01  2.05955882E-01  2.07222142E-01  2.08247540E-01
  2.12569378E-01  2.55871478E-01  2.85353866E-01  2.93829900E-01  2.97223302E-01
  3.15000391E-01  3.24155523E-01  3.28346411E-01  3.89188154E-01  3.99962873E-01
  4.82996488E-01  5.28281617E-01  5.36787701E-01  5.61300092E-01  6.07027900E-01
  6.13341802E-01  6.67926828E-01  6.70177968E-01  7.38107519E-01  7.60781980E-01
  7.69165051E-01  7.74733866E-01  7.90753328E-01  7.95697096E-01  8.21541822E-01
  8.63464717E-01  8.66248105E-01  8.67031377E-01  8.90293718E-01  8.92689340E-01
  9.08473340E-01  9.26406885E-01  9.61868147E-01  9.62402653E-01  9.81403087E-01
  1.00217137E+00  1.00512787E+00  1.03209711E+00  1.05728391E+00  1.11900859E+00
  1.19408055E+00  1.21306180E+00  1.26705511E+00  1.26935845E+00  1.27896186E+00
  1.33918950E+00  1.36605027E+00  1.36761143E+00  1.43476900E+00  1.45600029E+00
  1.46791868E+00  1.46845025E+00  1.48395084E+00  1.49312241E+00  1.52186026E+00
  1.53484063E+00  1.54537942E+00  1.71354708E+00  1.96289504E+00  1.96913874E+00
  1.97414155E+00  2.00343796E+00  2.01517254E+00  2.03599380E+00  2.06905777E+00
  2.15177461E+00  2.22805579E+00  2.23548868E+00  2.25316501E+00  2.31229148E+00
  2.32354956E+00  2.40411167E+00  2.41731973E+00  2.41968098E+00  2.47491427E+00
  2.47670699E+00  2.51951831E+00  2.52111574E+00  2.53653182E+00  2.55520131E+00
  2.56835899E+00  2.57998565E+00  2.63160457E+00  2.67462258E+00  2.67813079E+00
  2.71074767E+00  2.72479099E+00  2.76124342E+00  2.81366794E+00  2.84691216E+00
  2.89848813E+00  2.93029028E+00  2.96638101E+00  2.97657062E+00  3.00509158E+00
  3.02700294E+00  3.06073972E+00  3.06927133E+00  3.12482996E+00  3.14421027E+00
  3.26090691E+00  3.26808887E+00  3.28454666E+00  3.32115823E+00  3.32347064E+00
  3.36730066E+00  3.45515396E+00  3.48262951E+00  3.53110940E+00  3.53391377E+00
  3.59987460E+00  3.60681507E+00  3.72258043E+00  3.73659305E+00  3.76197445E+00
  3.87398167E+00  3.97415695E+00  4.05531654E+00  4.07792419E+00  4.23291981E+00
  4.24141369E+00  4.27385339E+00  4.28520783E+00  4.31060961E+00  4.35693280E+00
  4.52703220E+00  4.55688662E+00  4.98391279E+00  5.00918315E+00  5.04965332E+00
  5.07566299E+00  5.10546398E+00  5.14484281E+00  5.26607991E+00  5.99773764E+00
  6.10555363E+00  6.11353091E+00  6.31614271E+00  6.37038773E+00  6.43759437E+00
  6.50212806E+00  6.60464460E+00  6.62095611E+00  6.66571986E+00  6.67345517E+00
  6.71306832E+00  7.04127266E+00  7.04723115E+00  7.07038865E+00  8.30608177E+00
  8.31293280E+00  8.33114177E+00  8.34547831E+00  8.35658275E+00  8.36215234E+00
  8.46415124E+00  8.47271527E+00  8.60111643E+00  8.60233128E+00  8.63396824E+00
  8.64023971E+00  8.65411031E+00  8.65666440E+00  8.69631399E+00  8.70508635E+00
  8.72027431E+00  8.72448595E+00  8.72819653E+00  8.74815494E+00  8.77846622E+00
  8.83051741E+00  8.84111978E+00  8.88457523E+00  8.88779001E+00  8.90063635E+00
  8.90183875E+00  8.93845963E+00  8.99049136E+00  8.99974291E+00  9.05510350E+00
  9.08060627E+00  9.15906416E+00  9.16978675E+00  9.35311781E+00  9.38732132E+00
  1.25522479E+01  1.37478956E+01  1.45305699E+01  1.45360062E+01  1.68604125E+01
Alpha MO coefficients                      R   N=       52900
  1.04381186E-05  5.76728594E-05 -7.20775869E-06  6.23204961E-04  7.43636477E-04
  8.33422761E-06 -1.24993380E-07  6.13145388E-06 -2.96204598E-05  1.66702160E-06
 -9.11395320E-05 -9.33875136E-06  1.32704523E-05 -7.07225769E-04  1.39272619E-05
  7.00163675E-06 -3.96582007E-04  1.27142485E-05 -1.89407886E-05 -4.10514194E-07
  8.51722258E-07  3.71523090E-07  1.41547992E-06  6.58602328E-05  2.37693428E-07
 -1.57145534E-05 -1.36043139E-06  3.28286845E-04  1.12187676E-04 -1.05039774E-05
  3.74248147E-05 -2.09758237E-06  1.35647344E-06  1.65022240E-05 -2.96565406E-07
  9.51978952E-06 -5.74451477E-07  7.45473157E-06 -1.95572773E-07  2.51209044E-05
 -1.06853923E-04 -6.51968261E-07 -2.11706879E-05  3.41864181E-06 -2.64077665E-05
  4.85748100E-07  1.86291388E-04  1.11536671E-03 -4.79445014E-04  2.03470227E-03
  5.47214411E-04 -1.79017681E-04 -3.48852853E-06  1.89222452E-04  2.28207889E-03
  4.57730486E-05 -2.44696400E-03  6.47022096E-04  1.26473955E-05 -8.88779759E-04
 -6.23126942E-05 -1.74637918E-06  8.79719930E-05  1.47073529E-04 -3.40595626E-04
 -7.13199343E-06  1.42819166E-04  6.12996170E-06  7.32623979E-04 -1.99119003E-03
 -4.21746625E-05  1.02987785E-03  3.71426919E-05  2.22517749E-05 -2.08117413E-04
 -3.07776134E-06  8.05002115E-05  4.98676262E-06  2.63957287E-05  2.87177514E-04
  7.05320904E-06 -2.82873731E-04 -1.02481053E-05  8.07197325E-05  6.17219336E-06
 -6.88662165E-05  3.11776878E-04  1.62706099E-05 -5.09629762E-04 -7.52008631E-06
 -6.68236248E-05  9.75768404E-06 -2.60103723E-05 -3.51557082E-05 -1.03939650E-05
  5.37130705E-04  4.60147781E-04 -1.04516991E-05 -8.12574707E-06  3.63463240E-06
  4.08830786E-05  2.96246220E-05 -1.88058444E-05  6.06357283E-04  2.97171421E-04
 -3.18936077E-04  2.37004745E-04  1.47632538E-04 -1.51911512E-04  3.23935045E-06
 -5.94331789E-06  4.32223844E-08  1.43902845E-06 -2.45931109E-06 -1.24054820E-05
  6.83837309E-06 -1.56834437E-05  9.48877402E-06  1.40135332E-05 -1.37631968E-04
 -1.08628271E-04 -9.61671199E-05  7.38575099E-05  2.95927978E-04  1.27359082E-05
  1.26194223E-05  6.77655116E-06 -9.24657655E-06 -1.76391308E-05  1.54929609E-05
  6.60704208E-06 -2.41133473E-05 -4.50411473E-05 -1.89769250E-05  2.44749584E-05
  3.31069838E-05 -4.79975722E-05 -1.19360771E-08  9.74241036E-01 -9.84265192E-03
  4.87002455E-02 -1.38093311E-03 -4.08052347E-03 -7.31406448E-04 -1.55935385E-05
  8.58012989E-04  8.19808854E-04  1.71795075E-05 -9.43741799E-04  1.93586773E-03
  4.20235235E-05 -2.26104405E-03  5.95072473E-04  1.36545351E-05 -7.79551588E-04
  1.23576969E-04 -1.26347879E-04 -4.84379078E-06  7.35404572E-05  2.41565319E-06
 -2.77566974E-04  5.97695160E-04  1.34385743E-05 -2.68819621E-04 -1.09034812E-05
 -3.32683624E-04  7.78011983E-04  1.71563712E-05 -3.43268845E-04 -1.44407758E-05
 -1.90973714E-06 -2.55315498E-05 -4.26218306E-07  1.72811359E-05  9.36538849E-07
 -9.16451486E-06 -4.01345970E-07  2.05785622E-05  2.88938657E-04  5.89422082E-06
 -2.35876722E-04 -1.03760432E-05  9.35398529E-05  5.30320643E-06 -2.54960935E-05
 -3.47872845E-05 -1.03898311E-05  5.39309621E-04  4.65131201E-04 -1.04603965E-05
  7.99113515E-06  3.84532543E-06  4.11566678E-05 -2.91566221E-05 -1.96615758E-05
  6.06336263E-04 -2.85028745E-04 -3.25816526E-04  2.37932016E-04 -1.42269273E-04
 -1.56488380E-04  3.19456970E-06 -5.97546847E-06 -2.30711432E-07  1.47377285E-06
  2.60005901E-06 -1.14505096E-05  6.75062514E-06  1.58594348E-05  9.90592655E-06
 -1.40819448E-05 -1.31670204E-04 -1.17714405E-04  1.00100542E-04  7.83127971E-05
 -2.91051680E-04  1.22134780E-05  1.34690189E-05 -7.18601774E-06 -9.95315165E-06
  1.63397642E-05  1.62201418E-05 -6.17572878E-06 -2.27651422E-05 -4.66087455E-05