 Entering Gaussian System, Link 0=g09
 Input=cis-MeSNO.com
 Output=cis-MeSNO.log
 AtFile(1): cis-MeSNO.xyz
            C         12.58694        8.75830       13.29043
            S         11.30644        8.97374       14.52066
            H         13.25511        7.93968       13.57421
            H         13.15465        9.70210       13.26046
            N         11.61330       10.67959       15.07595
            O         12.50780       11.25720       14.56875
            H         12.14572        8.56723       12.30761
 AtFile(1): /home/MARQNET/talipovm/def2-TZVPPD.gbs
            !  def2-TZVPPD  EMSL  Basis Set Exchange Library   3/28/11 10:39 AM
            ! Elements                             References
            ! --------                             ----------
            ! H He Li Be B C N O F Ne Na Mg Al Si P S Cl Ar K Ca Sc Ti V Cr Mn Fe Co Ni Cu Zn Ga Ge As Se Br Kr Rb Sr Y Zr Nb Mo Tc Ru Rh Pd Ag Cd In Sn Sb Te I Xe Cs Ba La Hf Ta W Re Os Ir Pt Au Hg Tl Pb Bi Po At Rn: Dmitrij Rappoport, Property-optimized Gaussian basis sets for molecular response calculations, J. Chem. Phys. 113, 134105 (2010).
            !
            H     0
            S   3   1.00
                 34.061341000            0.60251978000E-02
                  5.1235746000           0.45021094000E-01
                  1.1646626000           0.20189726000
            S   1   1.00
                  0.32723041000          1.0000000
            S   1   1.00
                  0.10307241000          1.0000000
            P   1   1.00
                  1.4070000000           1.0000000
            P   1   1.00
                  0.38800000000          1.0000000
            P   1   1.00
                  0.95774129632E-01            1.0000000
            D   1   1.00
                  1.0570000000           1.0000000
            ****
            C     0
            S   6   1.00
              13575.3496820              0.22245814352E-03
               2035.2333680              0.17232738252E-02
                463.22562359             0.89255715314E-02
                131.20019598             0.35727984502E-01
                 42.853015891            0.11076259931
                 15.584185766            0.24295627626
            S   2   1.00
                  6.2067138508           0.41440263448
                  2.5764896527           0.23744968655
            S   1   1.00
                  0.57696339419          1.0000000
            S   1   1.00
                  0.22972831358          1.0000000
            S   1   1.00
                  0.95164440028E-01            1.0000000
            S   1   1.00
                  0.48475401370E-01            1.0000000
            P   4   1.00
                 34.697232244            0.53333657805E-02
                  7.9582622826           0.35864109092E-01
                  2.3780826883           0.14215873329
                  0.81433208183          0.34270471845
            P   1   1.00
                  0.28887547253          1.0000000
            P   1   1.00
                  0.10056823671          1.0000000
            D   1   1.00
                  1.0970000000           1.0000000
            D   1   1.00
                  0.31800000000          1.0000000
            D   1   1.00
                  0.90985336424E-01            1.0000000
            F   1   1.00
                  0.76100000000          1.0000000
            ****
            N     0
            S   6   1.00
              19730.8006470              0.21887984991E-03
               2957.8958745              0.16960708803E-02
                673.22133595             0.87954603538E-02
                190.68249494             0.35359382605E-01
                 62.295441898            0.11095789217
                 22.654161182            0.24982972552
            S   2   1.00
                  8.9791477428           0.40623896148
                  3.6863002370           0.24338217176
            S   1   1.00
                  0.84660076805          1.0000000
            S   1   1.00
                  0.33647133771          1.0000000
            S   1   1.00
                  0.13647653675          1.0000000
            S   1   1.00
                  0.68441605847E-01            1.0000000
            P   4   1.00
                 49.200380510            0.55552416751E-02
                 11.346790537            0.38052379723E-01
                  3.4273972411           0.14953671029
                  1.1785525134           0.34949305230
            P   1   1.00
                  0.41642204972          1.0000000
            P   1   1.00
                  0.14260826011          1.0000000
            D   1   1.00
                  1.6540000000           1.0000000
            D   1   1.00
                  0.46900000000          1.0000000
            D   1   1.00
                  0.12829642058          1.0000000
            F   1   1.00
                  1.0930000000           1.0000000
            ****
            O     0
            S   6   1.00
              27032.3826310              0.21726302465E-03
               4052.3871392              0.16838662199E-02
                922.32722710             0.87395616265E-02
                261.24070989             0.35239968808E-01
                 85.354641351            0.11153519115
                 31.035035245            0.25588953961
            S   2   1.00
                 12.260860728            0.39768730901
                  4.9987076005           0.24627849430
            S   1   1.00
                  1.1703108158           1.0000000
            S   1   1.00
                  0.46474740994          1.0000000
            S   1   1.00
                  0.18504536357          1.0000000
            S   1   1.00
                  0.70288026270E-01            1.0000000
            P   4   1.00
                 63.274954801            0.60685103418E-02
                 14.627049379            0.41912575824E-01
                  4.4501223456           0.16153841088
                  1.5275799647           0.35706951311
            P   1   1.00
                  0.52935117943          1.0000000
            P   1   1.00
                  0.17478421270          1.0000000
            P   1   1.00
                  0.51112745706E-01            1.0000000
            D   1   1.00
                  2.3140000000           1.0000000
            D   1   1.00
                  0.64500000000          1.0000000
            D   1   1.00
                  0.14696477366          1.0000000
            F   1   1.00
                  1.4280000000           1.0000000
            ****
            S     0
            S   7   1.00
              60700.9281040              0.54695944225E-03
               9102.6106854              0.42297224557E-02
               2071.4166009              0.21747824159E-01
                586.02476821             0.85100053589E-01
                190.55395021             0.24799128459
                 67.630384260            0.46703640406
                 25.127306905            0.36434587550
            S   3   1.00
                112.57463010             0.21670040240E-01
                 34.795554217            0.93602301760E-01
                  6.5115556215          -0.26068001422
            S   2   1.00
                  3.2399032261           1.2842089435
                  1.5477160881           0.66036416584
            S   1   1.00
                  0.40541030112          1.0000000
            S   1   1.00
                  0.14550651059          1.0000000
            S   1   1.00
                  0.50178839540E-01            1.0000000
            P   5   1.00
                564.36716027             0.24796796317E-02
                133.42624379             0.19677930250E-01
                 42.468271189            0.89980008258E-01
                 15.616527580            0.25705880575
                  6.1093988469           0.43515167292
            P   1   1.00
                  2.4404160198           1.0000000
            P   1   1.00
                  0.83882201296          1.0000000
            P   1   1.00
                  0.31288746900          1.0000000
            P   1   1.00
                  0.10770109004          1.0000000
            P   1   1.00
                  0.30359833649E-01            1.0000000
            D   1   1.00
                  3.7560000000           1.0000000
            D   1   1.00
                  0.81200000000          1.0000000
            D   1   1.00
                  0.27300000000          1.0000000
            D   1   1.00
                  0.81547024970E-01            1.0000000
            F   1   1.00
                  0.55700000000          1.0000000
            ****
 Initial command:
 /group/hpc-share/gaussian-2009-B01/g09/l1.exe /gaussian/g_cis-MeSNO.com-42295.hn1/Gau-17632.inp -scrdir=/gaussian/g_cis-MeSNO.com-42295.hn1/
 Entering Link 1 = /group/hpc-share/gaussian-2009-B01/g09/l1.exe PID=     17634.
  
 Copyright (c) 1988,1990,1992,1993,1995,1998,2003,2009,2010,
            Gaussian, Inc.  All Rights Reserved.
  
 This is part of the Gaussian(R) 09 program.  It is based on
 the Gaussian(R) 03 system (copyright 2003, Gaussian, Inc.),
 the Gaussian(R) 98 system (copyright 1998, Gaussian, Inc.),
 the Gaussian(R) 94 system (copyright 1995, Gaussian, Inc.),
 the Gaussian 92(TM) system (copyright 1992, Gaussian, Inc.),
 the Gaussian 90(TM) system (copyright 1990, Gaussian, Inc.),
 the Gaussian 88(TM) system (copyright 1988, Gaussian, Inc.),
 the Gaussian 86(TM) system (copyright 1986, Carnegie Mellon
 University), and the Gaussian 82(TM) system (copyright 1983,
 Carnegie Mellon University). Gaussian is a federally registered
 trademark of Gaussian, Inc.
  
 This software contains proprietary and confidential information,
 including trade secrets, belonging to Gaussian, Inc.
  
 This software is provided under written license and may be
 used, copied, transmitted, or stored only in accord with that
 written license.
  
 The following legend is applicable only to US Government
 contracts under FAR:
  
                    RESTRICTED RIGHTS LEGEND
  
 Use, reproduction and disclosure by the US Government is
 subject to restrictions as set forth in subparagraphs (a)
 and (c) of the Commercial Computer Software - Restricted
 Rights clause in FAR 52.227-19.
  
 Gaussian, Inc.
 340 Quinnipiac St., Bldg. 40, Wallingford CT 06492
  
  
 ---------------------------------------------------------------
 Warning -- This program may not be used in any manner that
 competes with the business of Gaussian, Inc. or will provide
 assistance to any competitor of Gaussian, Inc.  The licensee
 of this program is prohibited from giving any competitor of
 Gaussian, Inc. access to this program.  By using this program,
 the user acknowledges that Gaussian, Inc. is engaged in the
 business of creating and licensing software in the field of
 computational chemistry and represents and warrants to the
 licensee that it is not a competitor of Gaussian, Inc. and that
 it will not use this program in any manner prohibited above.
 ---------------------------------------------------------------
  

 Cite this work as:
 Gaussian 09, Revision B.01,
 M. J. Frisch, G. W. Trucks, H. B. Schlegel, G. E. Scuseria, 
 M. A. Robb, J. R. Cheeseman, G. Scalmani, V. Barone, B. Mennucci, 
 G. A. Petersson, H. Nakatsuji, M. Caricato, X. Li, H. P. Hratchian, 
 A. F. Izmaylov, J. Bloino, G. Zheng, J. L. Sonnenberg, M. Hada, 
 M. Ehara, K. Toyota, R. Fukuda, J. Hasegawa, M. Ishida, T. Nakajima, 
 Y. Honda, O. Kitao, H. Nakai, T. Vreven, J. A. Montgomery, Jr., 
 J. E. Peralta, F. Ogliaro, M. Bearpark, J. J. Heyd, E. Brothers, 
 K. N. Kudin, V. N. Staroverov, T. Keith, R. Kobayashi, J. Normand, 
 K. Raghavachari, A. Rendell, J. C. Burant, S. S. Iyengar, J. Tomasi, 
 M. Cossi, N. Rega, J. M. Millam, M. Klene, J. E. Knox, J. B. Cross, 
 V. Bakken, C. Adamo, J. Jaramillo, R. Gomperts, R. E. Stratmann, 
 O. Yazyev, A. J. Austin, R. Cammi, C. Pomelli, J. W. Ochterski, 
 R. L. Martin, K. Morokuma, V. G. Zakrzewski, G. A. Voth, 
 P. Salvador, J. J. Dannenberg, S. Dapprich, A. D. Daniels, 
 O. Farkas, J. B. Foresman, J. V. Ortiz, J. Cioslowski, 
 and D. J. Fox, Gaussian, Inc., Wallingford CT, 2010.
 
 ******************************************
 Gaussian 09:  EM64L-G09RevB.01 12-Aug-2010
                28-Mar-2011 
 ******************************************
 %nproc=8
 Will use up to    8 processors via shared memory.
 %mem=2Gb
 %chk=cis-MeSNO.chk
 -----------------------
 #p pbe1pbe/gen opt freq
 -----------------------
 1/14=-1,18=20,19=15,26=3,38=1/1,3;
 2/9=110,12=2,17=6,18=5,40=1/2;
 3/5=7,11=2,16=1,25=1,30=1,71=1,74=-13/1,2,3;
 4//1;
 5/5=2,38=5/2;
 6/7=2,8=2,9=2,10=2,28=1/1;
 7//1,2,3,16;
 1/14=-1,18=20,19=15/3(2);
 2/9=110/2;
 99//99;
 2/9=110/2;
 3/5=7,6=1,11=2,16=1,25=1,30=1,71=1,74=-13,82=7/1,2,3;
 4/5=5,16=3/1;
 5/5=2,38=5/2;
 7//1,2,3,16;
 1/14=-1,18=20,19=15/3(-5);
 2/9=110/2;
 6/7=2,8=2,9=2,10=2,19=2,28=1/1;
 99/9=1/99;
 Leave Link    1 at Mon Mar 28 18:18:46 2011, MaxMem=  268435456 cpu:      21.1
 (Enter /group/hpc-share/gaussian-2009-B01/g09/l101.exe)


 Symbolic Z-matrix:
 Charge =  0 Multiplicity = 1
 C                     12.58694   8.7583    13.29043 
 S                     11.30644   8.97374   14.52066 
 H                     13.25511   7.93968   13.57421 
 H                     13.15465   9.7021    13.26046 
 N                     11.6133   10.67959   15.07595 
 O                     12.5078   11.2572   14.56875 
 H                     12.14572   8.56723   12.30761 
 
 NAtoms=      7 NQM=      7 NQMF=      0 NMic=      0 NMicF=      0 NTot=      7.
                    Isotopes and Nuclear Properties:
 (Nuclear quadrupole moments (NQMom) in fm**2, nuclear magnetic moments (NMagM)
  in nuclear magnetons)

  Atom         1           2           3           4           5           6           7
 IAtWgt=          12          32           1           1          14          16           1
 AtmWgt=  12.0000000  31.9720718   1.0078250   1.0078250  14.0030740  15.9949146   1.0078250
 NucSpn=           0           0           1           1           2           0           1
 AtZEff=   0.0000000   0.0000000   0.0000000   0.0000000   0.0000000   0.0000000   0.0000000
 NQMom=    0.0000000   0.0000000   0.0000000   0.0000000   2.0440000   0.0000000   0.0000000
 NMagM=    0.0000000   0.0000000   2.7928460   2.7928460   0.4037610   0.0000000   2.7928460
 Leave Link  101 at Mon Mar 28 18:18:47 2011, MaxMem=  268435456 cpu:       0.7
 (Enter /group/hpc-share/gaussian-2009-B01/g09/l103.exe)

 GradGradGradGradGradGradGradGradGradGradGradGradGradGradGradGradGradGrad
 Berny optimization.
 Initialization pass.
                           ----------------------------
                           !    Initial Parameters    !
                           ! (Angstroms and Degrees)  !
 --------------------------                            --------------------------
 ! Name  Definition              Value          Derivative Info.                !
 --------------------------------------------------------------------------------
 ! R1    R(1,2)                  1.7887         estimate D2E/DX2                !
 ! R2    R(1,3)                  1.0941         estimate D2E/DX2                !
 ! R3    R(1,4)                  1.1018         estimate D2E/DX2                !
 ! R4    R(1,7)                  1.0941         estimate D2E/DX2                !
 ! R5    R(2,5)                  1.82           estimate D2E/DX2                !
 ! R6    R(5,6)                  1.1794         estimate D2E/DX2                !
 ! A1    A(2,1,3)              110.4203         estimate D2E/DX2                !
 ! A2    A(2,1,4)              106.5227         estimate D2E/DX2                !
 ! A3    A(2,1,7)              110.4964         estimate D2E/DX2                !
 ! A4    A(3,1,4)              109.469          estimate D2E/DX2                !
 ! A5    A(3,1,7)              110.4009         estimate D2E/DX2                !
 ! A6    A(4,1,7)              109.4474         estimate D2E/DX2                !
 ! A7    A(1,2,5)              101.6557         estimate D2E/DX2                !
 ! A8    A(2,5,6)              117.1094         estimate D2E/DX2                !
 ! D1    D(3,1,2,5)            119.2646         estimate D2E/DX2                !
 ! D2    D(4,1,2,5)              0.4874         estimate D2E/DX2                !
 ! D3    D(7,1,2,5)           -118.3053         estimate D2E/DX2                !
 ! D4    D(1,2,5,6)              0.0002         estimate D2E/DX2                !
 --------------------------------------------------------------------------------
 Trust Radius=3.00D-01 FncErr=1.00D-07 GrdErr=1.00D-06
 Number of steps in this run=     28 maximum allowed number of steps=    100.
 GradGradGradGradGradGradGradGradGradGradGradGradGradGradGradGradGradGrad

 Leave Link  103 at Mon Mar 28 18:18:47 2011, MaxMem=  268435456 cpu:       0.1
 (Enter /group/hpc-share/gaussian-2009-B01/g09/l202.exe)
                          Input orientation:                          
 ---------------------------------------------------------------------
 Center     Atomic      Atomic             Coordinates (Angstroms)
 Number     Number       Type             X           Y           Z
 ---------------------------------------------------------------------
      1          6           0       12.586940    8.758300   13.290430
      2         16           0       11.306440    8.973740   14.520660
      3          1           0       13.255110    7.939680   13.574210
      4          1           0       13.154650    9.702100   13.260460
      5          7           0       11.613300   10.679590   15.075950
      6          8           0       12.507800   11.257200   14.568750
      7          1           0       12.145720    8.567230   12.307610
 ---------------------------------------------------------------------
                    Distance matrix (angstroms):
                    1          2          3          4          5
     1  C    0.000000
     2  S    1.788732   0.000000
     3  H    1.094130   2.400492   0.000000
     4  H    1.101795   2.352550   1.792946   0.000000
     5  N    2.797751   1.820009   3.529571   2.574345   0.000000
     6  O    2.808000   2.580653   3.543095   2.132692   1.179413
     7  H    1.094129   2.401506   1.796898   1.792705   3.522675
                    6          7
     6  O    0.000000
     7  H    3.532675   0.000000
 Stoichiometry    CH3NOS
 Framework group  C1[X(CH3NOS)]
 Deg. of freedom    15
 Full point group                 C1      NOp   1
 Largest Abelian subgroup         C1      NOp   1
 Largest concise Abelian subgroup C1      NOp   1
                         Standard orientation:                         
 ---------------------------------------------------------------------
 Center     Atomic      Atomic             Coordinates (Angstroms)
 Number     Number       Type             X           Y           Z
 ---------------------------------------------------------------------
      1          6           0       -1.226090    0.943542    0.000046
      2         16           0       -0.599459   -0.731836    0.000057
      3          1           0       -1.829331    1.125484   -0.894447
      4          1           0       -0.346538    1.607061   -0.008973
      5          7           0        1.198876   -0.451790    0.000003
      6          8           0        1.568383    0.668246   -0.000021
      7          1           0       -1.815440    1.132145    0.902384
 ---------------------------------------------------------------------
 Rotational constants (GHZ):     11.4906268      5.1742292      3.6515802
 Leave Link  202 at Mon Mar 28 18:18:48 2011, MaxMem=  268435456 cpu:       0.0
 (Enter /group/hpc-share/gaussian-2009-B01/g09/l301.exe)
 General basis read from cards:  (5D, 7F)
 Centers:   3  4  7
 S 3 1.00
     Exponent=  3.4061341000D+01 Coefficients=  6.0251978000D-03
     Exponent=  5.1235746000D+00 Coefficients=  4.5021094000D-02
     Exponent=  1.1646626000D+00 Coefficients=  2.0189726000D-01
 S 1 1.00
     Exponent=  3.2723041000D-01 Coefficients=  1.0000000000D+00
 S 1 1.00
     Exponent=  1.0307241000D-01 Coefficients=  1.0000000000D+00
 P 1 1.00
     Exponent=  1.4070000000D+00 Coefficients=  1.0000000000D+00
 P 1 1.00
     Exponent=  3.8800000000D-01 Coefficients=  1.0000000000D+00
 P 1 1.00
     Exponent=  9.5774129632D-02 Coefficients=  1.0000000000D+00
 D 1 1.00
     Exponent=  1.0570000000D+00 Coefficients=  1.0000000000D+00
 ****
 Centers:   1
 S 6 1.00
     Exponent=  1.3575349682D+04 Coefficients=  2.2245814352D-04
     Exponent=  2.0352333680D+03 Coefficients=  1.7232738252D-03
     Exponent=  4.6322562359D+02 Coefficients=  8.9255715314D-03
     Exponent=  1.3120019598D+02 Coefficients=  3.5727984502D-02
     Exponent=  4.2853015891D+01 Coefficients=  1.1076259931D-01
     Exponent=  1.5584185766D+01 Coefficients=  2.4295627626D-01
 S 2 1.00
     Exponent=  6.2067138508D+00 Coefficients=  4.1440263448D-01
     Exponent=  2.5764896527D+00 Coefficients=  2.3744968655D-01
 S 1 1.00
     Exponent=  5.7696339419D-01 Coefficients=  1.0000000000D+00
 S 1 1.00
     Exponent=  2.2972831358D-01 Coefficients=  1.0000000000D+00
 S 1 1.00
     Exponent=  9.5164440028D-02 Coefficients=  1.0000000000D+00
 S 1 1.00
     Exponent=  4.8475401370D-02 Coefficients=  1.0000000000D+00
 P 4 1.00
     Exponent=  3.4697232244D+01 Coefficients=  5.3333657805D-03
     Exponent=  7.9582622826D+00 Coefficients=  3.5864109092D-02
     Exponent=  2.3780826883D+00 Coefficients=  1.4215873329D-01
     Exponent=  8.1433208183D-01 Coefficients=  3.4270471845D-01
 P 1 1.00
     Exponent=  2.8887547253D-01 Coefficients=  1.0000000000D+00
 P 1 1.00
     Exponent=  1.0056823671D-01 Coefficients=  1.0000000000D+00
 D 1 1.00
     Exponent=  1.0970000000D+00 Coefficients=  1.0000000000D+00
 D 1 1.00
     Exponent=  3.1800000000D-01 Coefficients=  1.0000000000D+00
 D 1 1.00
     Exponent=  9.0985336424D-02 Coefficients=  1.0000000000D+00
 F 1 1.00
     Exponent=  7.6100000000D-01 Coefficients=  1.0000000000D+00
 ****
 Centers:   5
 S 6 1.00
     Exponent=  1.9730800647D+04 Coefficients=  2.1887984991D-04
     Exponent=  2.9578958745D+03 Coefficients=  1.6960708803D-03
     Exponent=  6.7322133595D+02 Coefficients=  8.7954603538D-03
     Exponent=  1.9068249494D+02 Coefficients=  3.5359382605D-02
     Exponent=  6.2295441898D+01 Coefficients=  1.1095789217D-01
     Exponent=  2.2654161182D+01 Coefficients=  2.4982972552D-01
 S 2 1.00
     Exponent=  8.9791477428D+00 Coefficients=  4.0623896148D-01
     Exponent=  3.6863002370D+00 Coefficients=  2.4338217176D-01
 S 1 1.00
     Exponent=  8.4660076805D-01 Coefficients=  1.0000000000D+00
 S 1 1.00
     Exponent=  3.3647133771D-01 Coefficients=  1.0000000000D+00
 S 1 1.00
     Exponent=  1.3647653675D-01 Coefficients=  1.0000000000D+00
 S 1 1.00
     Exponent=  6.8441605847D-02 Coefficients=  1.0000000000D+00
 P 4 1.00
     Exponent=  4.9200380510D+01 Coefficients=  5.5552416751D-03
     Exponent=  1.1346790537D+01 Coefficients=  3.8052379723D-02
     Exponent=  3.4273972411D+00 Coefficients=  1.4953671029D-01
     Exponent=  1.1785525134D+00 Coefficients=  3.4949305230D-01
 P 1 1.00
     Exponent=  4.1642204972D-01 Coefficients=  1.0000000000D+00
 P 1 1.00
     Exponent=  1.4260826011D-01 Coefficients=  1.0000000000D+00
 D 1 1.00
     Exponent=  1.6540000000D+00 Coefficients=  1.0000000000D+00
 D 1 1.00
     Exponent=  4.6900000000D-01 Coefficients=  1.0000000000D+00
 D 1 1.00
     Exponent=  1.2829642058D-01 Coefficients=  1.0000000000D+00
 F 1 1.00
     Exponent=  1.0930000000D+00 Coefficients=  1.0000000000D+00
 ****
 Centers:   6
 S 6 1.00
     Exponent=  2.7032382631D+04 Coefficients=  2.1726302465D-04
     Exponent=  4.0523871392D+03 Coefficients=  1.6838662199D-03
     Exponent=  9.2232722710D+02 Coefficients=  8.7395616265D-03
     Exponent=  2.6124070989D+02 Coefficients=  3.5239968808D-02
     Exponent=  8.5354641351D+01 Coefficients=  1.1153519115D-01
     Exponent=  3.1035035245D+01 Coefficients=  2.5588953961D-01
 S 2 1.00
     Exponent=  1.2260860728D+01 Coefficients=  3.9768730901D-01
     Exponent=  4.9987076005D+00 Coefficients=  2.4627849430D-01
 S 1 1.00
     Exponent=  1.1703108158D+00 Coefficients=  1.0000000000D+00
 S 1 1.00
     Exponent=  4.6474740994D-01 Coefficients=  1.0000000000D+00
 S 1 1.00
     Exponent=  1.8504536357D-01 Coefficients=  1.0000000000D+00
 S 1 1.00
     Exponent=  7.0288026270D-02 Coefficients=  1.0000000000D+00
 P 4 1.00
     Exponent=  6.3274954801D+01 Coefficients=  6.0685103418D-03
     Exponent=  1.4627049379D+01 Coefficients=  4.1912575824D-02
     Exponent=  4.4501223456D+00 Coefficients=  1.6153841088D-01
     Exponent=  1.5275799647D+00 Coefficients=  3.5706951311D-01
 P 1 1.00
     Exponent=  5.2935117943D-01 Coefficients=  1.0000000000D+00
 P 1 1.00
     Exponent=  1.7478421270D-01 Coefficients=  1.0000000000D+00
 P 1 1.00
     Exponent=  5.1112745706D-02 Coefficients=  1.0000000000D+00
 D 1 1.00
     Exponent=  2.3140000000D+00 Coefficients=  1.0000000000D+00
 D 1 1.00
     Exponent=  6.4500000000D-01 Coefficients=  1.0000000000D+00
 D 1 1.00
     Exponent=  1.4696477366D-01 Coefficients=  1.0000000000D+00
 F 1 1.00
     Exponent=  1.4280000000D+00 Coefficients=  1.0000000000D+00
 ****
 Centers:   2
 S 7 1.00
     Exponent=  6.0700928104D+04 Coefficients=  5.4695944225D-04
     Exponent=  9.1026106854D+03 Coefficients=  4.2297224557D-03
     Exponent=  2.0714166009D+03 Coefficients=  2.1747824159D-02
     Exponent=  5.8602476821D+02 Coefficients=  8.5100053589D-02
     Exponent=  1.9055395021D+02 Coefficients=  2.4799128459D-01
     Exponent=  6.7630384260D+01 Coefficients=  4.6703640406D-01
     Exponent=  2.5127306905D+01 Coefficients=  3.6434587550D-01
 S 3 1.00
     Exponent=  1.1257463010D+02 Coefficients=  2.1670040240D-02
     Exponent=  3.4795554217D+01 Coefficients=  9.3602301760D-02
     Exponent=  6.5115556215D+00 Coefficients= -2.6068001422D-01
 S 2 1.00
     Exponent=  3.2399032261D+00 Coefficients=  1.2842089435D+00
     Exponent=  1.5477160881D+00 Coefficients=  6.6036416584D-01
 S 1 1.00
     Exponent=  4.0541030112D-01 Coefficients=  1.0000000000D+00
 S 1 1.00
     Exponent=  1.4550651059D-01 Coefficients=  1.0000000000D+00
 S 1 1.00
     Exponent=  5.0178839540D-02 Coefficients=  1.0000000000D+00
 P 5 1.00
     Exponent=  5.6436716027D+02 Coefficients=  2.4796796317D-03
     Exponent=  1.3342624379D+02 Coefficients=  1.9677930250D-02
     Exponent=  4.2468271189D+01 Coefficients=  8.9980008258D-02
     Exponent=  1.5616527580D+01 Coefficients=  2.5705880575D-01
     Exponent=  6.1093988469D+00 Coefficients=  4.3515167292D-01
 P 1 1.00
     Exponent=  2.4404160198D+00 Coefficients=  1.0000000000D+00
 P 1 1.00
     Exponent=  8.3882201296D-01 Coefficients=  1.0000000000D+00
 P 1 1.00
     Exponent=  3.1288746900D-01 Coefficients=  1.0000000000D+00
 P 1 1.00
     Exponent=  1.0770109004D-01 Coefficients=  1.0000000000D+00
 P 1 1.00
     Exponent=  3.0359833649D-02 Coefficients=  1.0000000000D+00
 D 1 1.00
     Exponent=  3.7560000000D+00 Coefficients=  1.0000000000D+00
 D 1 1.00
     Exponent=  8.1200000000D-01 Coefficients=  1.0000000000D+00
 D 1 1.00
     Exponent=  2.7300000000D-01 Coefficients=  1.0000000000D+00
 D 1 1.00
     Exponent=  8.1547024970D-02 Coefficients=  1.0000000000D+00
 F 1 1.00
     Exponent=  5.5700000000D-01 Coefficients=  1.0000000000D+00
 ****
 Ernie: Thresh=  0.10000D-02 Tol=  0.10000D-05 Strict=F.
 There are   216 symmetry adapted basis functions of A   symmetry.
 Integral buffers will be    131072 words long.
 Raffenetti 2 integral format.
 Two-electron integral symmetry is turned on.
   216 basis functions,   316 primitive gaussians,   244 cartesian basis functions
    20 alpha electrons       20 beta electrons
       nuclear repulsion energy       157.4683324108 Hartrees.
 IExCor= 1009 DFT=T Ex+Corr=PBE1PBE ExCW=0 ScaHFX=  0.250000
 ScaDFX=  0.750000  0.750000  1.000000  1.000000 ScalE2=  1.000000  1.000000
 IRadAn=      0 IRanWt=     -1 IRanGd=            0 ICorTp=0
 NAtoms=    7 NActive=    7 NUniq=    7 SFac= 1.00D+00 NAtFMM=   50 NAOKFM=F Big=F
 Leave Link  301 at Mon Mar 28 18:18:48 2011, MaxMem=  268435456 cpu:       0.7
 (Enter /group/hpc-share/gaussian-2009-B01/g09/l302.exe)
 NPDir=0 NMtPBC=     1 NCelOv=     1 NCel=       1 NClECP=     1 NCelD=      1
         NCelK=      1 NCelE2=     1 NClLst=     1 CellRange=     0.0.
 One-electron integrals computed using PRISM.
 NBasis=   216 RedAO= T  NBF=   216
 NBsUse=   216 1.00D-06 NBFU=   216
 Precomputing XC quadrature grid using
 IXCGrd= 2 IRadAn=           0 IRanWt=          -1 IRanGd=           0 AccXCQ= 0.00D+00.
 NRdTot=     452 NPtTot=       57320 NUsed=       60588 NTot=       60620
 NSgBfM=   244   244   244   244   244 NAtAll=     7     7.
 Leave Link  302 at Mon Mar 28 18:18:51 2011, MaxMem=  268435456 cpu:       4.2
 (Enter /group/hpc-share/gaussian-2009-B01/g09/l303.exe)
 DipDrv:  MaxL=1.
 Leave Link  303 at Mon Mar 28 18:18:51 2011, MaxMem=  268435456 cpu:       0.4
 (Enter /group/hpc-share/gaussian-2009-B01/g09/l401.exe)
 Harris functional with IExCor= 1009 diagonalized for initial guess.
 ExpMin= 3.04D-02 ExpMax= 6.07D+04 ExpMxC= 2.07D+03 IAcc=3 IRadAn=         0 AccDes= 0.00D+00
 HarFok:  IExCor= 1009 AccDes= 0.00D+00 IRadAn=         0 IDoV= 1
 ScaDFX=  1.000000  1.000000  1.000000  1.000000
 FoFCou: FMM=F IPFlag=           0 FMFlag=      100000 FMFlg1=           0
         NFxFlg=           0 DoJE=T BraDBF=F KetDBF=T FulRan=T
         Omega=  0.000000  0.000000  1.000000  0.000000  0.000000 ICntrl=     500 IOpCl=  0
         NMat0=    1 NMatS0=    1 NMatT0=    0 NMatD0=    1 NMtDS0=    0 NMtDT0=    0
         I1Cent=           4 NGrid=           0.
 Petite list used in FoFCou.
 Harris En= -567.718854723788    
 Initial guess orbital symmetries:
       Occupied  (A) (A) (A) (A) (A) (A) (A) (A) (A) (A) (A) (A)
                 (A) (A) (A) (A) (A) (A) (A) (A)
       Virtual   (A) (A) (A) (A) (A) (A) (A) (A) (A) (A) (A) (A)
                 (A) (A) (A) (A) (A) (A) (A) (A) (A) (A) (A) (A)
                 (A) (A) (A) (A) (A) (A) (A) (A) (A) (A) (A) (A)
                 (A) (A) (A) (A) (A) (A) (A) (A) (A) (A) (A) (A)
                 (A) (A) (A) (A) (A) (A) (A) (A) (A) (A) (A) (A)
                 (A) (A) (A) (A) (A) (A) (A) (A) (A) (A) (A) (A)
                 (A) (A) (A) (A) (A) (A) (A) (A) (A) (A) (A) (A)
                 (A) (A) (A) (A) (A) (A) (A) (A) (A) (A) (A) (A)
                 (A) (A) (A) (A) (A) (A) (A) (A) (A) (A) (A) (A)
                 (A) (A) (A) (A) (A) (A) (A) (A) (A) (A) (A) (A)
                 (A) (A) (A) (A) (A) (A) (A) (A) (A) (A) (A) (A)
                 (A) (A) (A) (A) (A) (A) (A) (A) (A) (A) (A) (A)
                 (A) (A) (A) (A) (A) (A) (A) (A) (A) (A) (A) (A)
                 (A) (A) (A) (A) (A) (A) (A) (A) (A) (A) (A) (A)
                 (A) (A) (A) (A) (A) (A) (A) (A) (A) (A) (A) (A)
                 (A) (A) (A) (A) (A) (A) (A) (A) (A) (A) (A) (A)
                 (A) (A) (A) (A)
 The electronic state of the initial guess is 1-A.
 Leave Link  401 at Mon Mar 28 18:18:53 2011, MaxMem=  268435456 cpu:       7.4
 (Enter /group/hpc-share/gaussian-2009-B01/g09/l502.exe)
 Closed shell SCF:
 Requested convergence on RMS density matrix=1.00D-08 within 128 cycles.
 Requested convergence on MAX density matrix=1.00D-06.
 Requested convergence on             energy=1.00D-06.
 No special actions if energy rises.
 Using DIIS extrapolation, IDIIS=  1040.
 Integral symmetry usage will be decided dynamically.
        60512 words used for storage of precomputed grid.
 IEnd=      260990 IEndB=      260990 NGot=   268435456 MDV=   268250887
 LenX=   268250887 LenY=   268190910
 Fock matrices will be formed incrementally for  20 cycles.

 Cycle   1  Pass 1  IDiag  1:
 FoFCou: FMM=F IPFlag=           0 FMFlag=      100000 FMFlg1=           0
         NFxFlg=           0 DoJE=F BraDBF=F KetDBF=F FulRan=T
         Omega=  0.000000  0.000000  1.000000  0.000000  0.000000 ICntrl=       0 IOpCl=  0
         NMat0=    1 NMatS0=    1 NMatT0=    0 NMatD0=    1 NMtDS0=    0 NMtDT0=    0
         I1Cent=           0 NGrid=           0.
 Symmetry not used in FoFCou.
 E= -567.647435674853    
 DIIS: error= 2.11D-02 at cycle   1 NSaved=   1.
 NSaved= 1 IEnMin= 1 EnMin= -567.647435674853     IErMin= 1 ErrMin= 2.11D-02
 ErrMax= 2.11D-02 EMaxC= 1.00D-01 BMatC= 1.66D-01 BMatP= 1.66D-01
 IDIUse=3 WtCom= 7.89D-01 WtEn= 2.11D-01
 Coeff-Com:  0.100D+01
 Coeff-En:   0.100D+01
 Coeff:      0.100D+01
 Gap=     0.157 Goal=   None    Shift=    0.000
 GapD=    0.157 DampG=1.000 DampE=0.500 DampFc=0.5000 IDamp=-1.
 Damping current iteration by 5.00D-01
 RMSDP=2.79D-03 MaxDP=9.68D-02              OVMax= 2.32D-01

 Cycle   2  Pass 1  IDiag  1:
 RMSU=  9.86D-04    CP:  9.95D-01
 E= -567.645120554603     Delta-E=        0.002315120249 Rises=F Damp=T
 DIIS: error= 1.27D-02 at cycle   2 NSaved=   2.
 NSaved= 2 IEnMin= 1 EnMin= -567.647435674853     IErMin= 2 ErrMin= 1.27D-02
 ErrMax= 1.27D-02 EMaxC= 1.00D-01 BMatC= 5.06D-02 BMatP= 1.66D-01
 IDIUse=3 WtCom= 8.73D-01 WtEn= 1.27D-01
 Coeff-Com:  0.287D+00 0.713D+00
 Coeff-En:   0.508D+00 0.492D+00
 Coeff:      0.315D+00 0.685D+00
 Gap=     0.161 Goal=   None    Shift=    0.000
 RMSDP=1.22D-03 MaxDP=4.79D-02 DE= 2.32D-03 OVMax= 2.11D-01

 Cycle   3  Pass 1  IDiag  1:
 RMSU=  6.71D-04    CP:  9.92D-01  4.55D-01
 E= -567.718410871690     Delta-E=       -0.073290317086 Rises=F Damp=F
 DIIS: error= 1.24D-02 at cycle   3 NSaved=   3.
 NSaved= 3 IEnMin= 3 EnMin= -567.718410871690     IErMin= 3 ErrMin= 1.24D-02
 ErrMax= 1.24D-02 EMaxC= 1.00D-01 BMatC= 4.74D-02 BMatP= 5.06D-02
 IDIUse=3 WtCom= 8.76D-01 WtEn= 1.24D-01
 Coeff-Com:  0.484D-01 0.480D+00 0.471D+00
 Coeff-En:   0.000D+00 0.140D+00 0.860D+00
 Coeff:      0.424D-01 0.438D+00 0.520D+00
 Gap=     0.171 Goal=   None    Shift=    0.000
 RMSDP=8.43D-04 MaxDP=3.61D-02 DE=-7.33D-02 OVMax= 1.17D-01

 Cycle   4  Pass 1  IDiag  1:
 RMSU=  3.92D-04    CP:  9.95D-01  6.94D-01  4.31D-01
 E= -567.749586948640     Delta-E=       -0.031176076951 Rises=F Damp=F
 DIIS: error= 5.00D-03 at cycle   4 NSaved=   4.
 NSaved= 4 IEnMin= 4 EnMin= -567.749586948640     IErMin= 4 ErrMin= 5.00D-03
 ErrMax= 5.00D-03 EMaxC= 1.00D-01 BMatC= 8.83D-03 BMatP= 4.74D-02
 IDIUse=3 WtCom= 9.50D-01 WtEn= 5.00D-02
 Coeff-Com: -0.130D-01 0.146D+00 0.330D+00 0.536D+00
 Coeff-En:   0.000D+00 0.000D+00 0.217D+00 0.783D+00
 Coeff:     -0.124D-01 0.139D+00 0.325D+00 0.549D+00
 Gap=     0.169 Goal=   None    Shift=    0.000
 RMSDP=3.84D-04 MaxDP=1.19D-02 DE=-3.12D-02 OVMax= 4.52D-02

 Cycle   5  Pass 1  IDiag  1:
 RMSU=  1.31D-04    CP:  9.93D-01  6.23D-01  6.70D-01  5.92D-01
 E= -567.756999978032     Delta-E=       -0.007413029392 Rises=F Damp=F
 DIIS: error= 2.14D-03 at cycle   5 NSaved=   5.
 NSaved= 5 IEnMin= 5 EnMin= -567.756999978032     IErMin= 5 ErrMin= 2.14D-03
 ErrMax= 2.14D-03 EMaxC= 1.00D-01 BMatC= 9.75D-04 BMatP= 8.83D-03
 IDIUse=3 WtCom= 9.79D-01 WtEn= 2.14D-02
 Coeff-Com: -0.140D-01 0.468D-01 0.163D+00 0.351D+00 0.453D+00
 Coeff-En:   0.000D+00 0.000D+00 0.000D+00 0.882D-01 0.912D+00
 Coeff:     -0.137D-01 0.458D-01 0.159D+00 0.346D+00 0.463D+00
 Gap=     0.173 Goal=   None    Shift=    0.000
 RMSDP=1.40D-04 MaxDP=6.24D-03 DE=-7.41D-03 OVMax= 2.10D-02

 Cycle   6  Pass 1  IDiag  1:
 RMSU=  4.88D-05    CP:  9.93D-01  6.67D-01  6.20D-01  6.78D-01  5.59D-01
 E= -567.757898575509     Delta-E=       -0.000898597477 Rises=F Damp=F
 DIIS: error= 7.52D-04 at cycle   6 NSaved=   6.
 NSaved= 6 IEnMin= 6 EnMin= -567.757898575509     IErMin= 6 ErrMin= 7.52D-04
 ErrMax= 7.52D-04 EMaxC= 1.00D-01 BMatC= 1.23D-04 BMatP= 9.75D-04
 IDIUse=3 WtCom= 9.92D-01 WtEn= 7.52D-03
 Coeff-Com: -0.318D-02-0.720D-03 0.332D-01 0.990D-01 0.297D+00 0.575D+00
 Coeff-En:   0.000D+00 0.000D+00 0.000D+00 0.000D+00 0.135D+00 0.865D+00
 Coeff:     -0.316D-02-0.715D-03 0.330D-01 0.983D-01 0.296D+00 0.577D+00
 Gap=     0.173 Goal=   None    Shift=    0.000
 RMSDP=4.62D-05 MaxDP=2.09D-03 DE=-8.99D-04 OVMax= 5.46D-03

 Cycle   7  Pass 1  IDiag  1:
 RMSU=  1.64D-05    CP:  9.93D-01  6.50D-01  6.37D-01  6.77D-01  6.82D-01
                    CP:  7.65D-01
 E= -567.758029836417     Delta-E=       -0.000131260908 Rises=F Damp=F
 DIIS: error= 7.92D-05 at cycle   7 NSaved=   7.
 NSaved= 7 IEnMin= 7 EnMin= -567.758029836417     IErMin= 7 ErrMin= 7.92D-05
 ErrMax= 7.92D-05 EMaxC= 1.00D-01 BMatC= 2.01D-06 BMatP= 1.23D-04
 IDIUse=1 WtCom= 1.00D+00 WtEn= 0.00D+00
 Coeff-Com:  0.701D-03-0.500D-02-0.437D-02-0.407D-02 0.500D-01 0.151D+00
 Coeff-Com:  0.812D+00
 Coeff:      0.701D-03-0.500D-02-0.437D-02-0.407D-02 0.500D-01 0.151D+00
 Coeff:      0.812D+00
 Gap=     0.173 Goal=   None    Shift=    0.000
 RMSDP=1.01D-05 MaxDP=2.97D-04 DE=-1.31D-04 OVMax= 1.11D-03

 Cycle   8  Pass 1  IDiag  1:
 RMSU=  4.38D-06    CP:  9.93D-01  6.48D-01  6.39D-01  6.79D-01  7.09D-01
                    CP:  8.41D-01  1.06D+00
 E= -567.758032597027     Delta-E=       -0.000002760610 Rises=F Damp=F
 DIIS: error= 1.96D-05 at cycle   8 NSaved=   8.
 NSaved= 8 IEnMin= 8 EnMin= -567.758032597027     IErMin= 8 ErrMin= 1.96D-05
 ErrMax= 1.96D-05 EMaxC= 1.00D-01 BMatC= 1.07D-07 BMatP= 2.01D-06
 IDIUse=1 WtCom= 1.00D+00 WtEn= 0.00D+00
 Coeff-Com:  0.259D-03-0.368D-03-0.202D-02-0.753D-02-0.183D-01-0.260D-01
 Coeff-Com:  0.531D-01 0.100D+01
 Coeff:      0.259D-03-0.368D-03-0.202D-02-0.753D-02-0.183D-01-0.260D-01
 Coeff:      0.531D-01 0.100D+01
 Gap=     0.173 Goal=   None    Shift=    0.000
 RMSDP=3.83D-06 MaxDP=1.52D-04 DE=-2.76D-06 OVMax= 5.30D-04

 Cycle   9  Pass 1  IDiag  1:
 RMSU=  1.40D-06    CP:  9.93D-01  6.48D-01  6.39D-01  6.79D-01  7.15D-01
                    CP:  8.69D-01  1.16D+00  1.05D+00
 E= -567.758032865266     Delta-E=       -0.000000268239 Rises=F Damp=F
 DIIS: error= 1.10D-05 at cycle   9 NSaved=   9.
 NSaved= 9 IEnMin= 9 EnMin= -567.758032865266     IErMin= 9 ErrMin= 1.10D-05
 ErrMax= 1.10D-05 EMaxC= 1.00D-01 BMatC= 2.43D-08 BMatP= 1.07D-07
 IDIUse=1 WtCom= 1.00D+00 WtEn= 0.00D+00
 Coeff-Com:  0.121D-03 0.694D-04-0.644D-03-0.331D-02-0.105D-01-0.184D-01
 Coeff-Com: -0.309D-01 0.392D+00 0.671D+00
 Coeff:      0.121D-03 0.694D-04-0.644D-03-0.331D-02-0.105D-01-0.184D-01
 Coeff:     -0.309D-01 0.392D+00 0.671D+00
 Gap=     0.173 Goal=   None    Shift=    0.000
 RMSDP=1.11D-06 MaxDP=5.59D-05 DE=-2.68D-07 OVMax= 1.06D-04

 Cycle  10  Pass 1  IDiag  1:
 RMSU=  3.48D-07    CP:  9.93D-01  6.48D-01  6.39D-01  6.80D-01  7.16D-01
                    CP:  8.73D-01  1.17D+00  1.16D+00  9.00D-01
 E= -567.758032896660     Delta-E=       -0.000000031393 Rises=F Damp=F
 DIIS: error= 1.51D-06 at cycle  10 NSaved=  10.
 NSaved=10 IEnMin=10 EnMin= -567.758032896660     IErMin=10 ErrMin= 1.51D-06
 ErrMax= 1.51D-06 EMaxC= 1.00D-01 BMatC= 8.79D-10 BMatP= 2.43D-08
 IDIUse=1 WtCom= 1.00D+00 WtEn= 0.00D+00
 Coeff-Com: -0.130D-04 0.430D-04 0.134D-03 0.234D-03-0.532D-04-0.102D-02
 Coeff-Com: -0.190D-01-0.349D-01 0.108D+00 0.946D+00
 Coeff:     -0.130D-04 0.430D-04 0.134D-03 0.234D-03-0.532D-04-0.102D-02
 Coeff:     -0.190D-01-0.349D-01 0.108D+00 0.946D+00
 Gap=     0.173 Goal=   None    Shift=    0.000
 RMSDP=3.02D-07 MaxDP=9.86D-06 DE=-3.14D-08 OVMax= 3.97D-05

 Cycle  11  Pass 1  IDiag  1:
 RMSU=  6.17D-08    CP:  9.93D-01  6.48D-01  6.39D-01  6.80D-01  7.16D-01
                    CP:  8.75D-01  1.18D+00  1.18D+00  9.87D-01  1.04D+00
 E= -567.758032898126     Delta-E=       -0.000000001467 Rises=F Damp=F
 DIIS: error= 3.46D-07 at cycle  11 NSaved=  11.
 NSaved=11 IEnMin=11 EnMin= -567.758032898126     IErMin=11 ErrMin= 3.46D-07
 ErrMax= 3.46D-07 EMaxC= 1.00D-01 BMatC= 4.41D-11 BMatP= 8.79D-10
 IDIUse=1 WtCom= 1.00D+00 WtEn= 0.00D+00
 Coeff-Com: -0.518D-05 0.611D-05 0.611D-04 0.147D-03 0.250D-03 0.289D-03
 Coeff-Com: -0.501D-02-0.200D-01 0.213D-01 0.317D+00 0.686D+00
 Coeff:     -0.518D-05 0.611D-05 0.611D-04 0.147D-03 0.250D-03 0.289D-03
 Coeff:     -0.501D-02-0.200D-01 0.213D-01 0.317D+00 0.686D+00
 Gap=     0.173 Goal=   None    Shift=    0.000
 RMSDP=2.76D-08 MaxDP=7.99D-07 DE=-1.47D-09 OVMax= 1.71D-06

 Cycle  12  Pass 1  IDiag  1:
 RMSU=  1.64D-08    CP:  9.93D-01  6.48D-01  6.39D-01  6.80D-01  7.16D-01
                    CP:  8.75D-01  1.18D+00  1.18D+00  9.90D-01  1.06D+00
                    CP:  9.54D-01
 E= -567.758032898163     Delta-E=       -0.000000000036 Rises=F Damp=F
 DIIS: error= 9.43D-08 at cycle  12 NSaved=  12.
 NSaved=12 IEnMin=12 EnMin= -567.758032898163     IErMin=12 ErrMin= 9.43D-08
 ErrMax= 9.43D-08 EMaxC= 1.00D-01 BMatC= 3.13D-12 BMatP= 4.41D-11
 IDIUse=1 WtCom= 1.00D+00 WtEn= 0.00D+00
 Coeff-Com:  0.526D-06-0.264D-05 0.690D-05 0.155D-04 0.521D-04 0.185D-03
 Coeff-Com:  0.298D-03-0.258D-02-0.336D-02 0.140D-02 0.136D+00 0.868D+00
 Coeff:      0.526D-06-0.264D-05 0.690D-05 0.155D-04 0.521D-04 0.185D-03
 Coeff:      0.298D-03-0.258D-02-0.336D-02 0.140D-02 0.136D+00 0.868D+00
 Gap=     0.173 Goal=   None    Shift=    0.000
 RMSDP=8.48D-09 MaxDP=2.26D-07 DE=-3.64D-11 OVMax= 6.34D-07

 SCF Done:  E(RPBE1PBE) =  -567.758032898     A.U. after   12 cycles
             Convg  =    0.8481D-08             -V/T =  2.0024
 KE= 5.664079719926D+02 PE=-1.659646544147D+03 EE= 3.680122068456D+02
 Leave Link  502 at Mon Mar 28 18:19:42 2011, MaxMem=  268435456 cpu:     370.6
 (Enter /group/hpc-share/gaussian-2009-B01/g09/l601.exe)
 Copying SCF densities to generalized density rwf, IOpCl= 0 IROHF=0.

 **********************************************************************

            Population analysis using the SCF density.

 **********************************************************************

 Orbital symmetries:
       Occupied  (A) (A) (A) (A) (A) (A) (A) (A) (A) (A) (A) (A)
                 (A) (A) (A) (A) (A) (A) (A) (A)
       Virtual   (A) (A) (A) (A) (A) (A) (A) (A) (A) (A) (A) (A)
                 (A) (A) (A) (A) (A) (A) (A) (A) (A) (A) (A) (A)
                 (A) (A) (A) (A) (A) (A) (A) (A) (A) (A) (A) (A)
                 (A) (A) (A) (A) (A) (A) (A) (A) (A) (A) (A) (A)
                 (A) (A) (A) (A) (A) (A) (A) (A) (A) (A) (A) (A)
                 (A) (A) (A) (A) (A) (A) (A) (A) (A) (A) (A) (A)
                 (A) (A) (A) (A) (A) (A) (A) (A) (A) (A) (A) (A)
                 (A) (A) (A) (A) (A) (A) (A) (A) (A) (A) (A) (A)
                 (A) (A) (A) (A) (A) (A) (A) (A) (A) (A) (A) (A)
                 (A) (A) (A) (A) (A) (A) (A) (A) (A) (A) (A) (A)
                 (A) (A) (A) (A) (A) (A) (A) (A) (A) (A) (A) (A)
                 (A) (A) (A) (A) (A) (A) (A) (A) (A) (A) (A) (A)
                 (A) (A) (A) (A) (A) (A) (A) (A) (A) (A) (A) (A)
                 (A) (A) (A) (A) (A) (A) (A) (A) (A) (A) (A) (A)
                 (A) (A) (A) (A) (A) (A) (A) (A) (A) (A) (A) (A)
                 (A) (A) (A) (A) (A) (A) (A) (A) (A) (A) (A) (A)
                 (A) (A) (A) (A)
 The electronic state is 1-A.
 Alpha  occ. eigenvalues --  -89.05723 -19.29387 -14.53862 -10.26289  -8.03476
 Alpha  occ. eigenvalues --   -5.97119  -5.96722  -5.96391  -1.23507  -0.84342
 Alpha  occ. eigenvalues --   -0.74249  -0.62706  -0.53702  -0.50651  -0.50081
 Alpha  occ. eigenvalues --   -0.45814  -0.43362  -0.37208  -0.28164  -0.26402
 Alpha virt. eigenvalues --   -0.09100  -0.01698   0.00827   0.02683   0.03907
 Alpha virt. eigenvalues --    0.04538   0.07359   0.07587   0.08571   0.09113
 Alpha virt. eigenvalues --    0.10115   0.11362   0.13750   0.14784   0.16316
 Alpha virt. eigenvalues --    0.17130   0.17569   0.18406   0.20952   0.21484
 Alpha virt. eigenvalues --    0.21717   0.24051   0.25431   0.25486   0.26859
 Alpha virt. eigenvalues --    0.28838   0.29954   0.30312   0.30624   0.34228
 Alpha virt. eigenvalues --    0.34368   0.34654   0.35761   0.35839   0.37777
 Alpha virt. eigenvalues --    0.38867   0.40831   0.40979   0.43640   0.44241
 Alpha virt. eigenvalues --    0.45292   0.46067   0.47425   0.49600   0.51131
 Alpha virt. eigenvalues --    0.51833   0.53558   0.55171   0.56442   0.58068
 Alpha virt. eigenvalues --    0.58590   0.60455   0.62134   0.64558   0.65858
 Alpha virt. eigenvalues --    0.68449   0.69412   0.70448   0.71081   0.72015
 Alpha virt. eigenvalues --    0.72802   0.76152   0.80589   0.82699   0.84051
 Alpha virt. eigenvalues --    0.85854   0.88909   0.92064   0.92202   1.02444
 Alpha virt. eigenvalues --    1.02815   1.05239   1.09217   1.13236   1.15972
 Alpha virt. eigenvalues --    1.16244   1.19049   1.21739   1.23887   1.29847
 Alpha virt. eigenvalues --    1.33324   1.37784   1.37953   1.41563   1.50139
 Alpha virt. eigenvalues --    1.55129   1.56801   1.57534   1.60959   1.61506
 Alpha virt. eigenvalues --    1.67498   1.68590   1.69851   1.73304   1.76352
 Alpha virt. eigenvalues --    1.77224   1.79263   1.83977   1.84515   1.84690
 Alpha virt. eigenvalues --    1.93012   1.95242   1.96429   1.96865   2.02290
 Alpha virt. eigenvalues --    2.12620   2.12647   2.22765   2.30273   2.31275
 Alpha virt. eigenvalues --    2.35269   2.36151   2.41967   2.53261   2.59801
 Alpha virt. eigenvalues --    2.71922   2.74736   2.80629   2.84960   2.86329
 Alpha virt. eigenvalues --    2.97467   2.99305   3.02481   3.02892   3.08457
 Alpha virt. eigenvalues --    3.11521   3.13796   3.18723   3.29194   3.33200
 Alpha virt. eigenvalues --    3.39041   3.46534   3.46696   3.53069   3.55881
 Alpha virt. eigenvalues --    3.61441   3.64567   3.76123   3.81555   3.86774
 Alpha virt. eigenvalues --    3.88311   3.88915   3.96675   3.98308   4.03663
 Alpha virt. eigenvalues --    4.07086   4.09623   4.12603   4.16737   4.19368
 Alpha virt. eigenvalues --    4.24763   4.26147   4.30693   4.35838   4.61126
 Alpha virt. eigenvalues --    4.62200   4.67382   4.67865   4.74483   4.81439
 Alpha virt. eigenvalues --    4.87069   5.05078   5.05409   5.10181   5.11699
 Alpha virt. eigenvalues --    5.14258   5.16058   5.21121   5.28820   5.33089
 Alpha virt. eigenvalues --    5.33844   5.39643   5.55318   5.58451   5.59806
 Alpha virt. eigenvalues --    5.66120   6.40248   6.42292   6.48155   6.49876
 Alpha virt. eigenvalues --    6.80749   6.86221   6.88999   6.90735   6.93417
 Alpha virt. eigenvalues --    7.00513   7.17671   7.22066   7.48015   9.01939
 Alpha virt. eigenvalues --    9.38156   9.50261  19.71282  23.44378  32.22500
 Alpha virt. eigenvalues --   44.24935
          Condensed to atoms (all electrons):
              1          2          3          4          5          6
     1  C    4.795059   0.095413   0.384672   0.346233  -0.003176   0.014219
     2  S    0.095413  15.987909   0.003942   0.013325   0.122109  -0.070755
     3  H    0.384672   0.003942   0.499511   0.022631  -0.000217  -0.003809
     4  H    0.346233   0.013325   0.022631   0.530698  -0.016949  -0.008194
     5  N   -0.003176   0.122109  -0.000217  -0.016949   6.636823   0.081307
     6  O    0.014219  -0.070755  -0.003809  -0.008194   0.081307   8.235431
     7  H    0.384883   0.003951   0.019434   0.022727  -0.000182  -0.003683
              7
     1  C    0.384883
     2  S    0.003951
     3  H    0.019434
     4  H    0.022727
     5  N   -0.000182
     6  O   -0.003683
     7  H    0.498807
 Mulliken atomic charges:
              1
     1  C   -0.017303
     2  S   -0.155894
     3  H    0.073836
     4  H    0.089529
     5  N    0.180285
     6  O   -0.244516
     7  H    0.074064
 Sum of Mulliken atomic charges =   0.00000
 Mulliken charges with hydrogens summed into heavy atoms:
              1
     1  C    0.220126
     2  S   -0.155894
     5  N    0.180285
     6  O   -0.244516
 Sum of Mulliken charges with hydrogens summed into heavy atoms =   0.00000
 Electronic spatial extent (au):  <R**2>=            343.6753
 Charge=              0.0000 electrons
 Dipole moment (field-independent basis, Debye):
    X=             -1.7640    Y=              1.1223    Z=             -0.0002  Tot=              2.0907
 Quadrupole moment (field-independent basis, Debye-Ang):
   XX=            -31.1417   YY=            -31.2148   ZZ=            -30.3918
   XY=             -1.8073   XZ=              0.0022   YZ=              0.0005
 Traceless Quadrupole moment (field-independent basis, Debye-Ang):
   XX=             -0.2256   YY=             -0.2987   ZZ=              0.5243
   XY=             -1.8073   XZ=              0.0022   YZ=              0.0005
 Octapole moment (field-independent basis, Debye-Ang**2):
  XXX=             -1.5598  YYY=              3.2115  ZZZ=              0.0204  XYY=              0.6610
  XXY=              2.2827  XXZ=             -0.0207  XZZ=              1.8287  YZZ=              2.5485
  YYZ=             -0.0003  XYZ=             -0.0067
 Hexadecapole moment (field-independent basis, Debye-Ang**3):
 XXXX=           -263.7561 YYYY=           -146.6737 ZZZZ=            -40.7761 XXXY=             -0.1854
 XXXZ=              0.0856 YYYX=              3.9171 YYYZ=             -0.0033 ZZZX=             -0.0227
 ZZZY=              0.0288 XXYY=            -70.5849 XXZZ=            -45.9857 YYZZ=            -31.9284
 XXYZ=             -0.0067 YYXZ=             -0.0182 ZZXY=             -1.1830
 N-N= 1.574683324108D+02 E-N=-1.659646541987D+03  KE= 5.664079719926D+02
 No NMR shielding tensors so no spin-rotation constants.
 Leave Link  601 at Mon Mar 28 18:19:43 2011, MaxMem=  268435456 cpu:       2.6
 (Enter /group/hpc-share/gaussian-2009-B01/g09/l701.exe)
 Compute integral first derivatives.
 ... and contract with generalized density number  0.
 Leave Link  701 at Mon Mar 28 18:19:44 2011, MaxMem=  268435456 cpu:       2.2
 (Enter /group/hpc-share/gaussian-2009-B01/g09/l702.exe)
 L702 exits ... SP integral derivatives will be done elsewhere.
 Leave Link  702 at Mon Mar 28 18:19:46 2011, MaxMem=  268435456 cpu:       0.2
 (Enter /group/hpc-share/gaussian-2009-B01/g09/l703.exe)
 Compute integral first derivatives, UseDBF=F ICtDFT=           0.
 Integral derivatives from FoFDir, PRISM(SPDF).
 Calling FoFJK, ICntrl=      2127 FMM=F ISym2X=0 I1Cent= 0 IOpClX= 0 NMat=1 NMatS=1 NMatT=0.
 FoFCou: FMM=F IPFlag=           0 FMFlag=      100000 FMFlg1=         800
         NFxFlg=           0 DoJE=F BraDBF=F KetDBF=F FulRan=T
         Omega=  0.000000  0.000000  1.000000  0.000000  0.000000 ICntrl=    2127 IOpCl=  0
         NMat0=    1 NMatS0=    1 NMatT0=    0 NMatD0=    1 NMtDS0=    0 NMtDT0=    0
         I1Cent=           0 NGrid=           0.
 Symmetry not used in FoFCou.
 Leave Link  703 at Mon Mar 28 18:19:56 2011, MaxMem=  268435456 cpu:      68.7
 (Enter /group/hpc-share/gaussian-2009-B01/g09/l716.exe)
 Dipole        =-6.94011988D-01 4.41530680D-01-8.19587894D-05
 ***** Axes restored to original set *****
 -------------------------------------------------------------------
 Center     Atomic                   Forces (Hartrees/Bohr)
 Number     Number              X              Y              Z
 -------------------------------------------------------------------
      1        6           0.000109740   -0.000271339   -0.000170104
      2       16           0.004361526    0.006291875   -0.000835752
      3        1          -0.002420755    0.002663714   -0.000946174
      4        1          -0.001924000   -0.003223021    0.000082894
      5        7           0.005734748   -0.001828091   -0.005915652
      6        8          -0.007224230   -0.004121706    0.004363396
      7        1           0.001362971    0.000488567    0.003421391
 -------------------------------------------------------------------
 Cartesian Forces:  Max     0.007224230 RMS     0.003522814
 Leave Link  716 at Mon Mar 28 18:19:57 2011, MaxMem=  268435456 cpu:       0.4
 (Enter /group/hpc-share/gaussian-2009-B01/g09/l103.exe)

 GradGradGradGradGradGradGradGradGradGradGradGradGradGradGradGradGradGrad
 Berny optimization.
 Internal  Forces:  Max     0.009378510 RMS     0.003295128
 Search for a local minimum.
 Step number   1 out of a maximum of   28
 All quantities printed in internal units (Hartrees-Bohrs-Radians)
 RMS Force = .32951D-02 SwitMx=.10000D-02 MixMth= 1
 Mixed Optimization -- RFO/linear search
 Second derivative matrix not updated -- first step.
 The second derivative matrix:
                          R1        R2        R3        R4        R5
           R1           0.27025
           R2           0.00000   0.34340
           R3           0.00000   0.00000   0.33484
           R4           0.00000   0.00000   0.00000   0.34340
           R5           0.00000   0.00000   0.00000   0.00000   0.24602
           R6           0.00000   0.00000   0.00000   0.00000   0.00000
           A1           0.00000   0.00000   0.00000   0.00000   0.00000
           A2           0.00000   0.00000   0.00000   0.00000   0.00000
           A3           0.00000   0.00000   0.00000   0.00000   0.00000
           A4           0.00000   0.00000   0.00000   0.00000   0.00000
           A5           0.00000   0.00000   0.00000   0.00000   0.00000
           A6           0.00000   0.00000   0.00000   0.00000   0.00000
           A7           0.00000   0.00000   0.00000   0.00000   0.00000
           A8           0.00000   0.00000   0.00000   0.00000   0.00000
           D1           0.00000   0.00000   0.00000   0.00000   0.00000
           D2           0.00000   0.00000   0.00000   0.00000   0.00000
           D3           0.00000   0.00000   0.00000   0.00000   0.00000
           D4           0.00000   0.00000   0.00000   0.00000   0.00000
                          R6        A1        A2        A3        A4
           R6           1.15887
           A1           0.00000   0.16000
           A2           0.00000   0.00000   0.16000
           A3           0.00000   0.00000   0.00000   0.16000
           A4           0.00000   0.00000   0.00000   0.00000   0.16000
           A5           0.00000   0.00000   0.00000   0.00000   0.00000
           A6           0.00000   0.00000   0.00000   0.00000   0.00000
           A7           0.00000   0.00000   0.00000   0.00000   0.00000
           A8           0.00000   0.00000   0.00000   0.00000   0.00000
           D1           0.00000   0.00000   0.00000   0.00000   0.00000
           D2           0.00000   0.00000   0.00000   0.00000   0.00000
           D3           0.00000   0.00000   0.00000   0.00000   0.00000
           D4           0.00000   0.00000   0.00000   0.00000   0.00000
                          A5        A6        A7        A8        D1
           A5           0.16000
           A6           0.00000   0.16000
           A7           0.00000   0.00000   0.25000
           A8           0.00000   0.00000   0.00000   0.25000
           D1           0.00000   0.00000   0.00000   0.00000   0.00519
           D2           0.00000   0.00000   0.00000   0.00000   0.00000
           D3           0.00000   0.00000   0.00000   0.00000   0.00000
           D4           0.00000   0.00000   0.00000   0.00000   0.00000
                          D2        D3        D4
           D2           0.00519
           D3           0.00000   0.00519
           D4           0.00000   0.00000   0.00230
 ITU=  0
     Eigenvalues ---    0.00230   0.00519   0.09844   0.10338   0.16000
     Eigenvalues ---    0.16000   0.16000   0.24602   0.25000   0.25000
     Eigenvalues ---    0.27025   0.33484   0.34340   0.34340   1.15887
 RFO step:  Lambda=-4.60636558D-04 EMin= 2.30000000D-03
 Linear search not attempted -- first point.
 Iteration  1 RMS(Cart)=  0.01150577 RMS(Int)=  0.00005847
 Iteration  2 RMS(Cart)=  0.00010696 RMS(Int)=  0.00000123
 Iteration  3 RMS(Cart)=  0.00000000 RMS(Int)=  0.00000123
 Variable       Old X    -DE/DX   Delta X   Delta X   Delta X     New X
                                 (Linear)    (Quad)   (Total)
    R1        3.38021  -0.00365   0.00000  -0.01349  -0.01349   3.36672
    R2        2.06761  -0.00372   0.00000  -0.01081  -0.01081   2.05680
    R3        2.08209  -0.00375   0.00000  -0.01119  -0.01119   2.07090
    R4        2.06760  -0.00371   0.00000  -0.01078  -0.01078   2.05682
    R5        3.43932  -0.00630   0.00000  -0.02558  -0.02558   3.41374
    R6        2.22877  -0.00938   0.00000  -0.00809  -0.00809   2.22068
    A1        1.92720  -0.00018   0.00000  -0.00135  -0.00135   1.92584
    A2        1.85917   0.00019   0.00000   0.00158   0.00158   1.86075
    A3        1.92853  -0.00025   0.00000  -0.00177  -0.00177   1.92675
    A4        1.91059   0.00014   0.00000   0.00132   0.00132   1.91191
    A5        1.92686  -0.00003   0.00000  -0.00098  -0.00098   1.92588
    A6        1.91022   0.00015   0.00000   0.00135   0.00135   1.91157
    A7        1.77423   0.00329   0.00000   0.01312   0.01312   1.78735
    A8        2.04394   0.00131   0.00000   0.00523   0.00523   2.04917
    D1        2.08156   0.00016   0.00000  -0.00075  -0.00076   2.08080
    D2        0.00851  -0.00002   0.00000  -0.00253  -0.00253   0.00598
    D3       -2.06482  -0.00018   0.00000  -0.00411  -0.00411  -2.06893
    D4        0.00000  -0.00001   0.00000  -0.00209  -0.00209  -0.00209
         Item               Value     Threshold  Converged?
 Maximum Force            0.009379     0.000450     NO 
 RMS     Force            0.003295     0.000300     NO 
 Maximum Displacement     0.020962     0.001800     NO 
 RMS     Displacement     0.011467     0.001200     NO 
 Predicted change in Energy=-2.306630D-04
 GradGradGradGradGradGradGradGradGradGradGradGradGradGradGradGradGradGrad

 Leave Link  103 at Mon Mar 28 18:19:59 2011, MaxMem=  268435456 cpu:       1.3
 (Enter /group/hpc-share/gaussian-2009-B01/g09/l202.exe)
                          Input orientation:                          
 ---------------------------------------------------------------------
 Center     Atomic      Atomic             Coordinates (Angstroms)
 Number     Number       Type             X           Y           Z
 ---------------------------------------------------------------------
      1          6           0       12.588563    8.758327   13.288588
      2         16           0       11.316115    8.983402   14.515084
      3          1           0       13.249411    7.942088   13.574367
      4          1           0       13.157072    9.694466   13.251477
      5          7           0       11.611526   10.675351   15.074892
      6          8           0       12.501773   11.261287   14.579843
      7          1           0       12.145500    8.562918   12.313820
 ---------------------------------------------------------------------
                    Distance matrix (angstroms):
                    1          2          3          4          5
     1  C    0.000000
     2  S    1.781594   0.000000
     3  H    1.088410   2.388915   0.000000
     4  H    1.095872   2.343382   1.784269   0.000000
     5  N    2.796510   1.806473   3.522070   2.583736   0.000000
     6  O    2.817744   2.568801   3.547821   2.156131   1.175132
     7  H    1.088422   2.389613   1.786905   1.784063   3.517247
                    6          7
     6  O    0.000000
     7  H    3.541608   0.000000
 Stoichiometry    CH3NOS
 Framework group  C1[X(CH3NOS)]
 Deg. of freedom    15
 Full point group                 C1      NOp   1
 Largest Abelian subgroup         C1      NOp   1
 Largest concise Abelian subgroup C1      NOp   1
                         Standard orientation:                         
 ---------------------------------------------------------------------
 Center     Atomic      Atomic             Coordinates (Angstroms)
 Number     Number       Type             X           Y           Z
 ---------------------------------------------------------------------
      1          6           0       -1.240764    0.928641    0.000272
      2         16           0       -0.587345   -0.728802   -0.000236
      3          1           0       -1.842546    1.098384   -0.890617
      4          1           0       -0.378745    1.605271   -0.005199
      5          7           0        1.196349   -0.442834    0.000864
      6          8           0        1.565346    0.672861   -0.000544
      7          1           0       -1.833819    1.102275    0.896262
 ---------------------------------------------------------------------
 Rotational constants (GHZ):     11.6572723      5.1823872      3.6713814
 Leave Link  202 at Mon Mar 28 18:20:00 2011, MaxMem=  268435456 cpu:       0.0
 (Enter /group/hpc-share/gaussian-2009-B01/g09/l301.exe)
 Basis read from rwf:  (5D, 7F)
 No pseudopotential information found on rwf file.
 There are   216 symmetry adapted basis functions of A   symmetry.
 Integral buffers will be    131072 words long.
 Raffenetti 2 integral format.
 Two-electron integral symmetry is turned on.
   216 basis functions,   316 primitive gaussians,   244 cartesian basis functions
    20 alpha electrons       20 beta electrons
       nuclear repulsion energy       158.0827125494 Hartrees.
 IExCor= 1009 DFT=T Ex+Corr=PBE1PBE ExCW=0 ScaHFX=  0.250000
 ScaDFX=  0.750000  0.750000  1.000000  1.000000 ScalE2=  1.000000  1.000000
 IRadAn=      0 IRanWt=     -1 IRanGd=            0 ICorTp=0
 NAtoms=    7 NActive=    7 NUniq=    7 SFac= 1.00D+00 NAtFMM=   50 NAOKFM=F Big=F
 No density basis found on file   724.
 Leave Link  301 at Mon Mar 28 18:20:00 2011, MaxMem=  268435456 cpu:       0.5
 (Enter /group/hpc-share/gaussian-2009-B01/g09/l302.exe)
 NPDir=0 NMtPBC=     1 NCelOv=     1 NCel=       1 NClECP=     1 NCelD=      1
         NCelK=      1 NCelE2=     1 NClLst=     1 CellRange=     0.0.
 One-electron integrals computed using PRISM.
 NBasis=   216 RedAO= T  NBF=   216
 NBsUse=   216 1.00D-06 NBFU=   216
 Precomputing XC quadrature grid using
 IXCGrd= 2 IRadAn=           0 IRanWt=          -1 IRanGd=           0 AccXCQ= 0.00D+00.
 NRdTot=     452 NPtTot=       57320 NUsed=       60588 NTot=       60620
 NSgBfM=   244   244   244   244   244 NAtAll=     7     7.
 Leave Link  302 at Mon Mar 28 18:20:00 2011, MaxMem=  268435456 cpu:       2.3
 (Enter /group/hpc-share/gaussian-2009-B01/g09/l303.exe)
 DipDrv:  MaxL=1.
 Leave Link  303 at Mon Mar 28 18:20:01 2011, MaxMem=  268435456 cpu:       0.4
 (Enter /group/hpc-share/gaussian-2009-B01/g09/l401.exe)
 Initial guess read from the read-write file.
 B after Tr=     0.000000    0.000000    0.000000
         Rot=    1.000000    0.000000    0.000000    0.000000 Ang=   0.00 deg.
 Guess basis will be translated and rotated to current coordinates.
 Initial guess orbital symmetries:
       Occupied  (A) (A) (A) (A) (A) (A) (A) (A) (A) (A) (A) (A)
                 (A) (A) (A) (A) (A) (A) (A) (A)
       Virtual   (A) (A) (A) (A) (A) (A) (A) (A) (A) (A) (A) (A)
                 (A) (A) (A) (A) (A) (A) (A) (A) (A) (A) (A) (A)
                 (A) (A) (A) (A) (A) (A) (A) (A) (A) (A) (A) (A)
                 (A) (A) (A) (A) (A) (A) (A) (A) (A) (A) (A) (A)
                 (A) (A) (A) (A) (A) (A) (A) (A) (A) (A) (A) (A)
                 (A) (A) (A) (A) (A) (A) (A) (A) (A) (A) (A) (A)
                 (A) (A) (A) (A) (A) (A) (A) (A) (A) (A) (A) (A)
                 (A) (A) (A) (A) (A) (A) (A) (A) (A) (A) (A) (A)
                 (A) (A) (A) (A) (A) (A) (A) (A) (A) (A) (A) (A)
                 (A) (A) (A) (A) (A) (A) (A) (A) (A) (A) (A) (A)
                 (A) (A) (A) (A) (A) (A) (A) (A) (A) (A) (A) (A)
                 (A) (A) (A) (A) (A) (A) (A) (A) (A) (A) (A) (A)
                 (A) (A) (A) (A) (A) (A) (A) (A) (A) (A) (A) (A)
                 (A) (A) (A) (A) (A) (A) (A) (A) (A) (A) (A) (A)
                 (A) (A) (A) (A) (A) (A) (A) (A) (A) (A) (A) (A)
                 (A) (A) (A) (A) (A) (A) (A) (A) (A) (A) (A) (A)
                 (A) (A) (A) (A)
 The electronic state of the initial guess is 1-A.
 Generating alternative initial guess.
 Harris functional with IExCor= 1009 diagonalized for initial guess.
 ExpMin= 3.04D-02 ExpMax= 6.07D+04 ExpMxC= 2.07D+03 IAcc=3 IRadAn=         0 AccDes= 0.00D+00
 HarFok:  IExCor= 1009 AccDes= 0.00D+00 IRadAn=         0 IDoV= 1
 ScaDFX=  1.000000  1.000000  1.000000  1.000000
 FoFCou: FMM=F IPFlag=           0 FMFlag=      100000 FMFlg1=           0
         NFxFlg=           0 DoJE=T BraDBF=F KetDBF=T FulRan=T
         Omega=  0.000000  0.000000  1.000000  0.000000  0.000000 ICntrl=     500 IOpCl=  0
         NMat0=    1 NMatS0=    1 NMatT0=    0 NMatD0=    1 NMtDS0=    0 NMtDT0=    0
         I1Cent=           4 NGrid=           0.
 Petite list used in FoFCou.
 Harris En= -567.719842900238    
 Leave Link  401 at Mon Mar 28 18:20:04 2011, MaxMem=  268435456 cpu:       6.1
 (Enter /group/hpc-share/gaussian-2009-B01/g09/l502.exe)
 Closed shell SCF:
 Requested convergence on RMS density matrix=1.00D-08 within 128 cycles.
 Requested convergence on MAX density matrix=1.00D-06.
 Requested convergence on             energy=1.00D-06.
 No special actions if energy rises.
 Using DIIS extrapolation, IDIIS=  1040.
 Integral symmetry usage will be decided dynamically.
        60512 words used for storage of precomputed grid.
 IEnd=      260990 IEndB=      260990 NGot=   268435456 MDV=   268250887
 LenX=   268250887 LenY=   268190910
 Fock matrices will be formed incrementally for  20 cycles.

 Cycle   1  Pass 1  IDiag  1:
 FoFCou: FMM=F IPFlag=           0 FMFlag=      100000 FMFlg1=           0
         NFxFlg=           0 DoJE=F BraDBF=F KetDBF=F FulRan=T
         Omega=  0.000000  0.000000  1.000000  0.000000  0.000000 ICntrl=       0 IOpCl=  0
         NMat0=    1 NMatS0=    1 NMatT0=    0 NMatD0=    1 NMtDS0=    0 NMtDT0=    0
         I1Cent=           0 NGrid=           0.
 Symmetry not used in FoFCou.
 E= -567.758046703206    
 DIIS: error= 8.32D-04 at cycle   1 NSaved=   1.
 NSaved= 1 IEnMin= 1 EnMin= -567.758046703206     IErMin= 1 ErrMin= 8.32D-04
 ErrMax= 8.32D-04 EMaxC= 1.00D-01 BMatC= 3.07D-04 BMatP= 3.07D-04
 IDIUse=3 WtCom= 9.92D-01 WtEn= 8.32D-03
 Coeff-Com:  0.100D+01
 Coeff-En:   0.100D+01
 Coeff:      0.100D+01
 Gap=     0.177 Goal=   None    Shift=    0.000
 RMSDP=1.03D-04 MaxDP=3.58D-03              OVMax= 6.88D-03

 Cycle   2  Pass 1  IDiag  1:
 RMSU=  7.25D-05    CP:  1.00D+00
 E= -567.758290129105     Delta-E=       -0.000243425899 Rises=F Damp=F
 DIIS: error= 3.53D-04 at cycle   2 NSaved=   2.
 NSaved= 2 IEnMin= 2 EnMin= -567.758290129105     IErMin= 2 ErrMin= 3.53D-04
 ErrMax= 3.53D-04 EMaxC= 1.00D-01 BMatC= 2.45D-05 BMatP= 3.07D-04
 IDIUse=3 WtCom= 9.96D-01 WtEn= 3.53D-03
 Coeff-Com:  0.844D-01 0.916D+00
 Coeff-En:   0.000D+00 0.100D+01
 Coeff:      0.841D-01 0.916D+00
 Gap=     0.174 Goal=   None    Shift=    0.000
 RMSDP=4.27D-05 MaxDP=1.23D-03 DE=-2.43D-04 OVMax= 3.90D-03

 Cycle   3  Pass 1  IDiag  1:
 RMSU=  3.01D-05    CP:  1.00D+00  1.03D+00
 E= -567.758269182293     Delta-E=        0.000020946812 Rises=F Damp=F
 DIIS: error= 4.13D-04 at cycle   3 NSaved=   3.
 NSaved= 3 IEnMin= 2 EnMin= -567.758290129105     IErMin= 2 ErrMin= 3.53D-04
 ErrMax= 4.13D-04 EMaxC= 1.00D-01 BMatC= 4.47D-05 BMatP= 2.45D-05
 IDIUse=3 WtCom= 3.30D-01 WtEn= 6.70D-01
 Coeff-Com: -0.130D-01 0.583D+00 0.430D+00
 Coeff-En:   0.000D+00 0.635D+00 0.365D+00
 Coeff:     -0.429D-02 0.618D+00 0.386D+00
 Gap=     0.174 Goal=   None    Shift=    0.000
 RMSDP=2.61D-05 MaxDP=1.11D-03 DE= 2.09D-05 OVMax= 3.25D-03

 Cycle   4  Pass 1  IDiag  1:
 RMSU=  9.33D-06    CP:  1.00D+00  1.07D+00  4.80D-01
 E= -567.758311743850     Delta-E=       -0.000042561557 Rises=F Damp=F
 DIIS: error= 9.91D-05 at cycle   4 NSaved=   4.
 NSaved= 4 IEnMin= 4 EnMin= -567.758311743850     IErMin= 4 ErrMin= 9.91D-05
 ErrMax= 9.91D-05 EMaxC= 1.00D-01 BMatC= 2.48D-06 BMatP= 2.45D-05
 IDIUse=1 WtCom= 1.00D+00 WtEn= 0.00D+00
 Coeff-Com: -0.141D-01 0.333D+00 0.256D+00 0.426D+00
 Coeff:     -0.141D-01 0.333D+00 0.256D+00 0.426D+00
 Gap=     0.174 Goal=   None    Shift=    0.000
 RMSDP=6.48D-06 MaxDP=2.42D-04 DE=-4.26D-05 OVMax= 7.62D-04

 Cycle   5  Pass 1  IDiag  1:
 RMSU=  2.80D-06    CP:  1.00D+00  1.07D+00  5.03D-01  6.22D-01
 E= -567.758314229806     Delta-E=       -0.000002485956 Rises=F Damp=F
 DIIS: error= 2.48D-05 at cycle   5 NSaved=   5.
 NSaved= 5 IEnMin= 5 EnMin= -567.758314229806     IErMin= 5 ErrMin= 2.48D-05
 ErrMax= 2.48D-05 EMaxC= 1.00D-01 BMatC= 2.67D-07 BMatP= 2.48D-06
 IDIUse=1 WtCom= 1.00D+00 WtEn= 0.00D+00
 Coeff-Com: -0.691D-02 0.125D+00 0.108D+00 0.241D+00 0.532D+00
 Coeff:     -0.691D-02 0.125D+00 0.108D+00 0.241D+00 0.532D+00
 Gap=     0.174 Goal=   None    Shift=    0.000
 RMSDP=1.65D-06 MaxDP=8.33D-05 DE=-2.49D-06 OVMax= 1.97D-04

 Cycle   6  Pass 1  IDiag  1:
 RMSU=  1.05D-06    CP:  1.00D+00  1.07D+00  5.04D-01  6.55D-01  8.60D-01
 E= -567.758314370201     Delta-E=       -0.000000140395 Rises=F Damp=F
 DIIS: error= 1.57D-05 at cycle   6 NSaved=   6.
 NSaved= 6 IEnMin= 6 EnMin= -567.758314370201     IErMin= 6 ErrMin= 1.57D-05
 ErrMax= 1.57D-05 EMaxC= 1.00D-01 BMatC= 7.62D-08 BMatP= 2.67D-07
 IDIUse=1 WtCom= 1.00D+00 WtEn= 0.00D+00
 Coeff-Com: -0.152D-02 0.815D-02 0.175D-01 0.655D-01 0.364D+00 0.546D+00
 Coeff:     -0.152D-02 0.815D-02 0.175D-01 0.655D-01 0.364D+00 0.546D+00
 Gap=     0.174 Goal=   None    Shift=    0.000
 RMSDP=8.50D-07 MaxDP=3.82D-05 DE=-1.40D-07 OVMax= 9.80D-05

 Cycle   7  Pass 1  IDiag  1:
 RMSU=  4.60D-07    CP:  1.00D+00  1.07D+00  5.13D-01  6.60D-01  9.20D-01
                    CP:  7.94D-01
 E= -567.758314422041     Delta-E=       -0.000000051840 Rises=F Damp=F
 DIIS: error= 4.98D-06 at cycle   7 NSaved=   7.
 NSaved= 7 IEnMin= 7 EnMin= -567.758314422041     IErMin= 7 ErrMin= 4.98D-06
 ErrMax= 4.98D-06 EMaxC= 1.00D-01 BMatC= 7.03D-09 BMatP= 7.62D-08
 IDIUse=1 WtCom= 1.00D+00 WtEn= 0.00D+00
 Coeff-Com:  0.121D-03-0.121D-01-0.452D-02 0.216D-02 0.110D+00 0.309D+00
 Coeff-Com:  0.596D+00
 Coeff:      0.121D-03-0.121D-01-0.452D-02 0.216D-02 0.110D+00 0.309D+00
 Coeff:      0.596D+00
 Gap=     0.174 Goal=   None    Shift=    0.000
 RMSDP=3.65D-07 MaxDP=1.52D-05 DE=-5.18D-08 OVMax= 3.12D-05

 Cycle   8  Pass 1  IDiag  1:
 RMSU=  1.53D-07    CP:  1.00D+00  1.07D+00  5.14D-01  6.73D-01  9.50D-01
                    CP:  8.50D-01  7.21D-01
 E= -567.758314428762     Delta-E=       -0.000000006722 Rises=F Damp=F
 DIIS: error= 5.63D-07 at cycle   8 NSaved=   8.
 NSaved= 8 IEnMin= 8 EnMin= -567.758314428762     IErMin= 8 ErrMin= 5.63D-07
 ErrMax= 5.63D-07 EMaxC= 1.00D-01 BMatC= 1.08D-10 BMatP= 7.03D-09
 IDIUse=1 WtCom= 1.00D+00 WtEn= 0.00D+00
 Coeff-Com:  0.926D-04-0.286D-02-0.182D-02-0.327D-02-0.387D-03 0.326D-01
 Coeff-Com:  0.135D+00 0.840D+00
 Coeff:      0.926D-04-0.286D-02-0.182D-02-0.327D-02-0.387D-03 0.326D-01
 Coeff:      0.135D+00 0.840D+00
 Gap=     0.174 Goal=   None    Shift=    0.000
 RMSDP=9.17D-08 MaxDP=3.59D-06 DE=-6.72D-09 OVMax= 1.32D-05

 Cycle   9  Pass 1  IDiag  1:
 RMSU=  5.29D-08    CP:  1.00D+00  1.07D+00  5.14D-01  6.74D-01  9.54D-01
                    CP:  8.67D-01  7.80D-01  1.05D+00
 E= -567.758314428967     Delta-E=       -0.000000000205 Rises=F Damp=F
 DIIS: error= 2.55D-07 at cycle   9 NSaved=   9.
 NSaved= 9 IEnMin= 9 EnMin= -567.758314428967     IErMin= 9 ErrMin= 2.55D-07
 ErrMax= 2.55D-07 EMaxC= 1.00D-01 BMatC= 1.70D-11 BMatP= 1.08D-10
 IDIUse=1 WtCom= 1.00D+00 WtEn= 0.00D+00
 Coeff-Com:  0.246D-04 0.419D-03-0.419D-04-0.163D-02-0.135D-01-0.248D-01
 Coeff-Com: -0.265D-01 0.268D+00 0.798D+00
 Coeff:      0.246D-04 0.419D-03-0.419D-04-0.163D-02-0.135D-01-0.248D-01
 Coeff:     -0.265D-01 0.268D+00 0.798D+00
 Gap=     0.174 Goal=   None    Shift=    0.000
 RMSDP=4.07D-08 MaxDP=6.82D-07 DE=-2.05D-10 OVMax= 5.69D-06

 Cycle  10  Pass 1  IDiag  1:
 RMSU=  1.37D-08    CP:  1.00D+00  1.07D+00  5.14D-01  6.75D-01  9.56D-01
                    CP:  8.73D-01  8.02D-01  1.18D+00  1.06D+00
 E= -567.758314429004     Delta-E=       -0.000000000037 Rises=F Damp=F
 DIIS: error= 6.28D-08 at cycle  10 NSaved=  10.
 NSaved=10 IEnMin=10 EnMin= -567.758314429004     IErMin=10 ErrMin= 6.28D-08
 ErrMax= 6.28D-08 EMaxC= 1.00D-01 BMatC= 1.40D-12 BMatP= 1.70D-11
 IDIUse=1 WtCom= 1.00D+00 WtEn= 0.00D+00
 Coeff-Com: -0.890D-05 0.532D-03 0.253D-03 0.214D-03-0.334D-02-0.907D-02
 Coeff-Com: -0.233D-01-0.412D-01 0.130D+00 0.946D+00
 Coeff:     -0.890D-05 0.532D-03 0.253D-03 0.214D-03-0.334D-02-0.907D-02
 Coeff:     -0.233D-01-0.412D-01 0.130D+00 0.946D+00
 Gap=     0.174 Goal=   None    Shift=    0.000
 RMSDP=1.54D-08 MaxDP=3.31D-07 DE=-3.71D-11 OVMax= 2.76D-06

 Cycle  11  Pass 1  IDiag  1:
 RMSU=  5.20D-09    CP:  1.00D+00  1.07D+00  5.14D-01  6.75D-01  9.56D-01
                    CP:  8.75D-01  8.08D-01  1.22D+00  1.16D+00  1.28D+00
 E= -567.758314429008     Delta-E=       -0.000000000004 Rises=F Damp=F
 DIIS: error= 1.83D-08 at cycle  11 NSaved=  11.
 NSaved=11 IEnMin=11 EnMin= -567.758314429008     IErMin=11 ErrMin= 1.83D-08
 ErrMax= 1.83D-08 EMaxC= 1.00D-01 BMatC= 1.28D-13 BMatP= 1.40D-12
 IDIUse=1 WtCom= 1.00D+00 WtEn= 0.00D+00
 Coeff-Com: -0.305D-05 0.747D-05 0.688D-05 0.228D-03 0.819D-03 0.135D-02
 Coeff-Com: -0.543D-03-0.330D-01-0.527D-01 0.170D+00 0.914D+00
 Coeff:     -0.305D-05 0.747D-05 0.688D-05 0.228D-03 0.819D-03 0.135D-02
 Coeff:     -0.543D-03-0.330D-01-0.527D-01 0.170D+00 0.914D+00
 Gap=     0.174 Goal=   None    Shift=    0.000
 RMSDP=4.61D-09 MaxDP=1.03D-07 DE=-3.64D-12 OVMax= 8.27D-07

 SCF Done:  E(RPBE1PBE) =  -567.758314429     A.U. after   11 cycles
             Convg  =    0.4611D-08             -V/T =  2.0023
 KE= 5.664737880859D+02 PE=-1.660918999581D+03 EE= 3.686041845170D+02
 Leave Link  502 at Mon Mar 28 18:21:00 2011, MaxMem=  268435456 cpu:     337.2
 (Enter /group/hpc-share/gaussian-2009-B01/g09/l701.exe)
 Compute integral first derivatives.
 ... and contract with generalized density number  0.
 Leave Link  701 at Mon Mar 28 18:21:00 2011, MaxMem=  268435456 cpu:       2.0
 (Enter /group/hpc-share/gaussian-2009-B01/g09/l702.exe)
 L702 exits ... SP integral derivatives will be done elsewhere.
 Leave Link  702 at Mon Mar 28 18:21:00 2011, MaxMem=  268435456 cpu:       0.2
 (Enter /group/hpc-share/gaussian-2009-B01/g09/l703.exe)
 Compute integral first derivatives, UseDBF=F ICtDFT=           0.
 Integral derivatives from FoFDir, PRISM(SPDF).
 Calling FoFJK, ICntrl=      2127 FMM=F ISym2X=0 I1Cent= 0 IOpClX= 0 NMat=1 NMatS=1 NMatT=0.
 FoFCou: FMM=F IPFlag=           0 FMFlag=      100000 FMFlg1=         800
         NFxFlg=           0 DoJE=F BraDBF=F KetDBF=F FulRan=T
         Omega=  0.000000  0.000000  1.000000  0.000000  0.000000 ICntrl=    2127 IOpCl=  0
         NMat0=    1 NMatS0=    1 NMatT0=    0 NMatD0=    1 NMtDS0=    0 NMtDT0=    0
         I1Cent=           0 NGrid=           0.
 Symmetry not used in FoFCou.
 Leave Link  703 at Mon Mar 28 18:21:09 2011, MaxMem=  268435456 cpu:      68.4
 (Enter /group/hpc-share/gaussian-2009-B01/g09/l716.exe)
 Dipole        =-7.19842270D-01 4.38784040D-01-6.40956724D-05
 ***** Axes restored to original set *****
 -------------------------------------------------------------------
 Center     Atomic                   Forces (Hartrees/Bohr)
 Number     Number              X              Y              Z
 -------------------------------------------------------------------
      1        6          -0.000442386    0.000109850    0.000501261
      2       16           0.000639940    0.003509006    0.001011334
      3        1           0.000112546   -0.000039784   -0.000051769
      4        1           0.000157285   -0.000015581   -0.000125197
      5        7          -0.000801826   -0.004075797   -0.001144476
      6        8           0.000322339    0.000543373   -0.000099007
      7        1           0.000012103   -0.000031067   -0.000092146
 -------------------------------------------------------------------
 Cartesian Forces:  Max     0.004075797 RMS     0.001258220
 Leave Link  716 at Mon Mar 28 18:21:09 2011, MaxMem=  268435456 cpu:       0.1
 (Enter /group/hpc-share/gaussian-2009-B01/g09/l103.exe)

 GradGradGradGradGradGradGradGradGradGradGradGradGradGradGradGradGradGrad
 Berny optimization.
 Using GEDIIS/GDIIS optimizer.
 Internal  Forces:  Max     0.003774693 RMS     0.000921699
 Search for a local minimum.
 Step number   2 out of a maximum of   28
 All quantities printed in internal units (Hartrees-Bohrs-Radians)
 RMS Force = .92170D-03 SwitMx=.10000D-02 MixMth= 2
 Mixed Optimization -- En-DIIS/RFO-DIIS
 Update second derivatives using D2CorX and points    1    2
 DE= -2.82D-04 DEPred=-2.31D-04 R= 1.22D+00
 SS=  1.41D+00  RLast= 3.87D-02 DXNew= 5.0454D-01 1.1619D-01
 Trust test= 1.22D+00 RLast= 3.87D-02 DXMaxT set to 3.00D-01
 The second derivative matrix:
                          R1        R2        R3        R4        R5
           R1           0.27292
           R2           0.00610   0.35341
           R3           0.00605   0.00999   0.34481
           R4           0.00608   0.00998   0.00996   0.35334
           R5          -0.02623  -0.02418  -0.02449  -0.02413   0.17762
           R6           0.01851   0.02879   0.02875   0.02869  -0.05875
           A1           0.00081   0.00109   0.00110   0.00109  -0.00107
           A2           0.00271   0.00283   0.00286   0.00283   0.00399
           A3           0.00013   0.00039   0.00039   0.00039  -0.00210
           A4          -0.00101  -0.00131  -0.00132  -0.00131   0.00087
           A5          -0.00183  -0.00192  -0.00194  -0.00192  -0.00258
           A6          -0.00070  -0.00097  -0.00097  -0.00096   0.00115
           A7          -0.00297  -0.00613  -0.00609  -0.00611   0.02319
           A8           0.00456   0.00403   0.00409   0.00402   0.01355
           D1          -0.00132  -0.00148  -0.00149  -0.00148  -0.00102
           D2           0.00003   0.00004   0.00004   0.00004  -0.00008
           D3           0.00114   0.00130   0.00131   0.00129   0.00069
           D4           0.00106   0.00120   0.00120   0.00119   0.00076
                          R6        A1        A2        A3        A4
           R6           1.24069
           A1           0.00301   0.16010
           A2           0.00723   0.00018   0.15988
           A3           0.00123   0.00006   0.00021   0.16000
           A4          -0.00358  -0.00012  -0.00018  -0.00007   0.16013
           A5          -0.00491  -0.00012   0.00007  -0.00014   0.00012
           A6          -0.00268  -0.00009  -0.00017  -0.00005   0.00011
           A7          -0.01833  -0.00077  -0.00245  -0.00016   0.00096
           A8           0.00960   0.00015  -0.00085   0.00037  -0.00011
           D1          -0.00387  -0.00010  -0.00003  -0.00010   0.00011
           D2           0.00012   0.00000   0.00001   0.00000  -0.00001
           D3           0.00341   0.00009   0.00004   0.00009  -0.00010
           D4           0.00313   0.00009   0.00003   0.00008  -0.00009
                          A5        A6        A7        A8        D1
           A5           0.15996
           A6           0.00012   0.16008
           A7           0.00165   0.00067   0.25320
           A8           0.00055  -0.00017  -0.00400   0.24735
           D1           0.00002   0.00010   0.00121   0.00025   0.00525
           D2          -0.00001   0.00000  -0.00003   0.00001  -0.00001
           D3          -0.00003  -0.00009  -0.00105  -0.00018  -0.00005
           D4          -0.00002  -0.00008  -0.00097  -0.00019  -0.00004
                          D2        D3        D4
           D2           0.00519
           D3           0.00000   0.00525
           D4           0.00000   0.00005   0.00234
 ITU=  1  0
 Use linear search instead of GDIIS.
     Eigenvalues ---    0.00230   0.00519   0.09848   0.10332   0.15239
     Eigenvalues ---    0.16000   0.16015   0.16305   0.24988   0.25413
     Eigenvalues ---    0.27638   0.33736   0.34340   0.37919   1.24806
 RFO step:  Lambda=-7.23481581D-05 EMin= 2.30267436D-03
 Quartic linear search produced a step of  0.26502.
 Iteration  1 RMS(Cart)=  0.01993386 RMS(Int)=  0.00059727
 Iteration  2 RMS(Cart)=  0.00065040 RMS(Int)=  0.00000062
 Iteration  3 RMS(Cart)=  0.00000055 RMS(Int)=  0.00000051
 Variable       Old X    -DE/DX   Delta X   Delta X   Delta X     New X
                                 (Linear)    (Quad)   (Total)
[...]
      7        1          -0.000066224    0.000001588    0.000040965
 -------------------------------------------------------------------
 Cartesian Forces:  Max     0.000307894 RMS     0.000126068
 Force constants in Cartesian coordinates: 
                1             2             3             4             5 
      1  0.439252D+00
      2 -0.412236D-02  0.540910D+00
      3  0.960574D-01 -0.148819D-02  0.466558D+00
      4 -0.101310D+00 -0.429158D-02  0.560088D-01  0.181390D+00
      5  0.646700D-02 -0.435114D-01 -0.986167D-02  0.303619D-01  0.136544D+00
      6  0.612294D-01 -0.448179D-03 -0.887405D-01 -0.111525D+00  0.219824D-01
      7 -0.142001D+00  0.129678D+00 -0.536972D-01 -0.140315D-01  0.135876D-01
      8  0.126855D+00 -0.202850D+00  0.587607D-01 -0.114234D-02  0.110652D-02
      9 -0.490466D-01  0.571758D-01 -0.629639D-01  0.134201D-01 -0.165841D-01
     10 -0.114139D+00 -0.121417D+00  0.173940D-02 -0.193399D-01 -0.918334D-02
     11 -0.113540D+00 -0.232840D+00  0.749887D-02 -0.140098D-02  0.442436D-02
     12  0.558385D-02  0.143923D-01 -0.423533D-01  0.136618D-01  0.116292D-01
     13  0.132675D-01  0.206971D-01  0.837969D-02 -0.337479D-01  0.441460D-01
     14  0.643275D-02 -0.122482D-01 -0.170816D-01  0.408261D-01 -0.134385D-02
     15  0.146515D-02 -0.295683D-01 -0.432946D-02  0.281528D-01 -0.274223D-01
     16 -0.611006D-02  0.320756D-03 -0.172529D-02 -0.181367D-01 -0.920117D-01
     17 -0.210713D-02  0.413507D-02  0.787015D-02 -0.628967D-01 -0.964161D-01
     18 -0.292863D-02  0.574797D-02 -0.291043D-02  0.481946D-03  0.249715D-01
     19 -0.889594D-01 -0.208650D-01 -0.106763D+00  0.517627D-02  0.663264D-02
     20 -0.199856D-01 -0.535947D-01 -0.456983D-01 -0.145632D-02 -0.803558D-03
     21 -0.112361D+00 -0.458113D-01 -0.265260D+00 -0.200859D-03 -0.471506D-02
                6             7             8             9            10 
      6  0.145286D+00
      7  0.195216D-02  0.151944D+00
      8 -0.908071D-03 -0.137769D+00  0.215099D+00
      9  0.152555D-02  0.495231D-01 -0.625659D-01  0.706046D-01
     10  0.986565D-02  0.121393D-01  0.168712D-01 -0.115001D-02  0.126687D+00
     11  0.482884D-02 -0.125626D-01 -0.169429D-01 -0.260716D-03  0.129203D+00
     12 -0.921924D-02  0.507398D-02  0.734396D-02 -0.124203D-02 -0.863159D-02
     13  0.297782D-01 -0.150154D-02 -0.403699D-03  0.358673D-02 -0.176984D-02
     14 -0.245688D-01 -0.288222D-02 -0.291307D-02 -0.725773D-04 -0.788328D-02
     15 -0.622443D-01  0.398929D-02  0.135881D-02 -0.560272D-02  0.905576D-03
     16 -0.136992D-01  0.403023D-03  0.104044D-02 -0.670548D-03  0.277991D-02
     17 -0.460580D-03  0.535939D-03  0.119016D-02  0.302538D-03  0.238246D-02
     18  0.291656D-01 -0.368601D-02 -0.204025D-02  0.336319D-02 -0.407491D-02
     19  0.223985D-01 -0.695244D-02 -0.545218D-02 -0.156628D-01 -0.635832D-02
     20 -0.425580D-03  0.941176D-02  0.531046D-02  0.220050D-01 -0.997240D-02
     21 -0.157729D-01 -0.315532D-02 -0.194923D-02 -0.568468D-02  0.134587D-02
               11            12            13            14            15 
     11  0.251516D+00
     12 -0.122625D-01  0.463922D-01
     13 -0.284427D-02  0.336067D-02  0.492296D+00
     14 -0.209272D-03  0.501202D-02  0.193163D+00  0.226004D+00
     15  0.588750D-03  0.315561D-02 -0.309718D+00 -0.733074D-01  0.265034D+00
     16  0.139223D-02 -0.456073D-02 -0.461290D+00 -0.229794D+00  0.272919D+00
     17 -0.284791D-02 -0.190528D-02 -0.253455D+00 -0.206978D+00  0.130744D+00
     18 -0.103259D-02 -0.145905D-03  0.261408D+00  0.110075D+00 -0.195574D+00
     19 -0.247048D-03 -0.144879D-01 -0.725417D-02  0.138532D-03  0.228657D-02
     20 -0.309961D-02 -0.242098D-01 -0.130265D-02 -0.231221D-02 -0.239335D-02
     21  0.639315D-03  0.341265D-02  0.320497D-02 -0.568950D-04 -0.439723D-03
               16            17            18            19            20 
     16  0.477846D+00
     17  0.317055D+00  0.300395D+00
     18 -0.250397D+00 -0.137786D+00  0.166181D+00
     19  0.450782D-02 -0.151464D-02 -0.803338D-03  0.998403D-01
     20  0.199756D-02  0.521408D-03  0.638096D-04  0.213077D-01  0.539782D-01
     21 -0.186593D-02  0.123502D-02 -0.801857D-04  0.113032D+00  0.506582D-01
               21 
     21  0.283825D+00
 Force constants in internal coordinates: 
                1             2             3             4             5 
      1  0.218911D+00
      2  0.518245D-02  0.347781D+00
      3  0.131216D-01  0.148019D-02  0.333293D+00
      4  0.518106D-02  0.210390D-02  0.148138D-02  0.347777D+00
      5  0.254947D-02 -0.935635D-04 -0.601572D-02 -0.935195D-04  0.126616D+00
      6  0.543263D-02 -0.872394D-03  0.281520D-02 -0.872180D-03  0.131344D+00
      7  0.210671D-01 -0.421440D-03 -0.649556D-02 -0.529626D-02 -0.118651D-02
      8  0.136695D-01 -0.538743D-02  0.123603D-01 -0.538653D-02 -0.585980D-02
      9  0.210639D-01 -0.529718D-02 -0.649515D-02 -0.426440D-03 -0.120464D-02
     10 -0.179045D-01  0.703975D-02  0.293640D-02 -0.395618D-02  0.424545D-02
     11 -0.194797D-01  0.763310D-02 -0.457417D-02  0.763361D-02 -0.287231D-03
     12 -0.178977D-01 -0.395545D-02  0.293257D-02  0.704265D-02  0.425285D-02
     13  0.496218D-02  0.942058D-03 -0.862087D-02  0.946357D-03  0.630481D-01
     14 -0.248991D-01 -0.264195D-03 -0.713108D-02 -0.258960D-03  0.814972D-01
     15 -0.188842D-02 -0.239130D-04  0.725530D-02 -0.575490D-02  0.985454D-03
     16  0.381508D-05 -0.505583D-02  0.000000D+00  0.505562D-02  0.000000D+00
     17  0.188779D-02  0.575607D-02 -0.725374D-02  0.226924D-04 -0.985534D-03
     18  0.298557D-04  0.276323D-03 -0.654317D-05 -0.277116D-03  0.256722D-04
                6             7             8             9            10 
      6  0.836505D+00
      7  0.256034D-02  0.102167D+00
      8  0.724053D-02 -0.179340D-01  0.104159D+00
      9  0.256435D-02 -0.215555D-01 -0.179446D-01  0.102166D+00
     10 -0.521963D-02 -0.294435D-01 -0.332733D-01  0.956990D-03  0.620644D-01
     11 -0.180067D-02 -0.340799D-01  0.555257D-03 -0.340770D-01  0.619392D-03
     12 -0.522025D-02  0.948187D-03 -0.332699D-01 -0.294418D-01 -0.101056D-02
     13 -0.126361D-01  0.839770D-02 -0.158719D-01  0.836915D-02  0.417226D-02
     14  0.699272D-01 -0.925822D-02  0.761766D-02 -0.924555D-02  0.282169D-02
     15 -0.589510D-03  0.189150D-02  0.117151D-01 -0.131379D-01  0.180827D-01
     16  0.000000D+00 -0.806895D-02  0.000000D+00  0.806948D-02 -0.206070D-01
     17  0.587187D-03  0.131463D-01 -0.117230D-01 -0.188803D-02 -0.302182D-03
     18 -0.834056D-05  0.964485D-02  0.120256D-04 -0.964498D-02 -0.622425D-02
               11            12            13            14            15 
     11  0.641868D-01
     12  0.620246D-03  0.620642D-01
     13 -0.932562D-02  0.419808D-02  0.343371D+00
     14  0.538903D-02  0.283614D-02  0.677250D-02  0.464748D+00
     15 -0.175513D-01  0.302522D-03  0.240287D-03  0.282118D-02  0.204699D-01
     16  0.000000D+00  0.206060D-01  0.660092D-05  0.753720D-05 -0.914232D-02
     17  0.175494D-01 -0.180842D-01 -0.241207D-03 -0.283091D-02 -0.923260D-02
     18 -0.220527D-05  0.621454D-02 -0.316578D-05 -0.265972D-04 -0.475429D-04
               16            17            18 
     16  0.199654D-01
     17 -0.914328D-02  0.204762D-01
     18  0.213592D-02 -0.498251D-04  0.566769D-01
 Leave Link  716 at Mon Mar 28 18:28:36 2011, MaxMem=  268435456 cpu:       0.4
 (Enter /group/hpc-share/gaussian-2009-B01/g09/l103.exe)

 GradGradGradGradGradGradGradGradGradGradGradGradGradGradGradGradGradGrad
 Berny optimization.
 Red2BG is reusing G-inverse.
 Internal  Forces:  Max     0.000434449 RMS     0.000139619
 Search for a local minimum.
 Step number   1 out of a maximum of    2
 All quantities printed in internal units (Hartrees-Bohrs-Radians)
 Second derivative matrix not updated -- analytic derivatives used.
 The second derivative matrix:
                          R1        R2        R3        R4        R5
           R1           0.21891
           R2           0.00518   0.34778
           R3           0.01312   0.00148   0.33329
           R4           0.00518   0.00210   0.00148   0.34778
           R5           0.00255  -0.00009  -0.00602  -0.00009   0.12662
           R6           0.00543  -0.00087   0.00282  -0.00087   0.13134
           A1           0.02107  -0.00042  -0.00650  -0.00530  -0.00119
           A2           0.01367  -0.00539   0.01236  -0.00539  -0.00586
           A3           0.02106  -0.00530  -0.00650  -0.00043  -0.00120
           A4          -0.01790   0.00704   0.00294  -0.00396   0.00425
           A5          -0.01948   0.00763  -0.00457   0.00763  -0.00029
           A6          -0.01790  -0.00396   0.00293   0.00704   0.00425
           A7           0.00496   0.00094  -0.00862   0.00095   0.06305
           A8          -0.02490  -0.00026  -0.00713  -0.00026   0.08150
           D1          -0.00189  -0.00002   0.00726  -0.00575   0.00099
           D2           0.00000  -0.00506   0.00000   0.00506   0.00000
           D3           0.00189   0.00576  -0.00725   0.00002  -0.00099
           D4           0.00003   0.00028  -0.00001  -0.00028   0.00003
                          R6        A1        A2        A3        A4
           R6           0.83650
           A1           0.00256   0.10217
           A2           0.00724  -0.01793   0.10416
           A3           0.00256  -0.02156  -0.01794   0.10217
           A4          -0.00522  -0.02944  -0.03327   0.00096   0.06206
           A5          -0.00180  -0.03408   0.00056  -0.03408   0.00062
           A6          -0.00522   0.00095  -0.03327  -0.02944  -0.00101
           A7          -0.01264   0.00840  -0.01587   0.00837   0.00417
           A8           0.06993  -0.00926   0.00762  -0.00925   0.00282
           D1          -0.00059   0.00189   0.01172  -0.01314   0.01808
           D2           0.00000  -0.00807   0.00000   0.00807  -0.02061
           D3           0.00059   0.01315  -0.01172  -0.00189  -0.00030
           D4          -0.00001   0.00964   0.00001  -0.00964  -0.00622
                          A5        A6        A7        A8        D1
           A5           0.06419
           A6           0.00062   0.06206
           A7          -0.00933   0.00420   0.34337
           A8           0.00539   0.00284   0.00677   0.46475
           D1          -0.01755   0.00030   0.00024   0.00282   0.02047
           D2           0.00000   0.02061   0.00001   0.00001  -0.00914
           D3           0.01755  -0.01808  -0.00024  -0.00283  -0.00923
           D4           0.00000   0.00621   0.00000  -0.00003  -0.00005
                          D2        D3        D4
           D2           0.01997
           D3          -0.00914   0.02048
           D4           0.00214  -0.00005   0.05668
 ITU=  0
     Eigenvalues ---    0.00167   0.05305   0.07137   0.07573   0.07931
     Eigenvalues ---    0.10924   0.13432   0.13979   0.23265   0.33240
     Eigenvalues ---    0.34653   0.35134   0.36122   0.46760   0.87718
 Angle between quadratic step and forces=  48.43 degrees.
 Linear search not attempted -- first point.
 Iteration  1 RMS(Cart)=  0.00048551 RMS(Int)=  0.00000028
 Iteration  2 RMS(Cart)=  0.00000029 RMS(Int)=  0.00000012
 Variable       Old X    -DE/DX   Delta X   Delta X   Delta X     New X
                                 (Linear)    (Quad)   (Total)
    R1        3.36594   0.00007   0.00000   0.00071   0.00071   3.36665
    R2        2.05710  -0.00001   0.00000  -0.00006  -0.00006   2.05705
    R3        2.07054   0.00001   0.00000  -0.00003  -0.00003   2.07051
    R4        2.05711  -0.00001   0.00000  -0.00006  -0.00006   2.05705
    R5        3.36160   0.00013   0.00000   0.00056   0.00056   3.36217
    R6        2.22853   0.00029   0.00000   0.00019   0.00019   2.22872
    A1        1.92656  -0.00007   0.00000  -0.00065  -0.00065   1.92590
    A2        1.86097   0.00000   0.00000  -0.00016  -0.00016   1.86081
    A3        1.92665  -0.00010   0.00000  -0.00075  -0.00075   1.92590
    A4        1.91201   0.00004   0.00000   0.00053   0.00053   1.91255
    A5        1.92460   0.00007   0.00000   0.00046   0.00046   1.92506
    A6        1.91197   0.00006   0.00000   0.00058   0.00058   1.91254
    A7        1.79803  -0.00017   0.00000  -0.00060  -0.00060   1.79743
    A8        2.05718   0.00043   0.00000   0.00081   0.00081   2.05799
    D1        2.07591   0.00001   0.00000  -0.00026  -0.00026   2.07564
    D2        0.00044   0.00000   0.00000  -0.00044  -0.00044   0.00000
    D3       -2.07502  -0.00002   0.00000  -0.00063  -0.00063  -2.07565
    D4       -0.00091   0.00005   0.00000   0.00091   0.00091   0.00000
         Item               Value     Threshold  Converged?
 Maximum Force            0.000434     0.000450     YES
 RMS     Force            0.000140     0.000300     YES
 Maximum Displacement     0.000883     0.001800     YES
 RMS     Displacement     0.000486     0.001200     YES
 Predicted change in Energy=-4.489593D-07
 Optimization completed.
    -- Stationary point found.
                           ----------------------------
                           !   Optimized Parameters   !
                           ! (Angstroms and Degrees)  !
 --------------------------                            --------------------------
 ! Name  Definition              Value          Derivative Info.                !
 --------------------------------------------------------------------------------
 ! R1    R(1,2)                  1.7812         -DE/DX =    0.0001              !
 ! R2    R(1,3)                  1.0886         -DE/DX =    0.0                 !
 ! R3    R(1,4)                  1.0957         -DE/DX =    0.0                 !
 ! R4    R(1,7)                  1.0886         -DE/DX =    0.0                 !
 ! R5    R(2,5)                  1.7789         -DE/DX =    0.0001              !
 ! R6    R(5,6)                  1.1793         -DE/DX =    0.0003              !
 ! A1    A(2,1,3)              110.3836         -DE/DX =   -0.0001              !
 ! A2    A(2,1,4)              106.6257         -DE/DX =    0.0                 !
 ! A3    A(2,1,7)              110.3892         -DE/DX =   -0.0001              !
 ! A4    A(3,1,4)              109.5503         -DE/DX =    0.0                 !
 ! A5    A(3,1,7)              110.2717         -DE/DX =    0.0001              !
 ! A6    A(4,1,7)              109.5477         -DE/DX =    0.0001              !
 ! A7    A(1,2,5)              103.0194         -DE/DX =   -0.0002              !
 ! A8    A(2,5,6)              117.8676         -DE/DX =    0.0004              !
 ! D1    D(3,1,2,5)            118.9406         -DE/DX =    0.0                 !
 ! D2    D(4,1,2,5)              0.0254         -DE/DX =    0.0                 !
 ! D3    D(7,1,2,5)           -118.8897         -DE/DX =    0.0                 !
 ! D4    D(1,2,5,6)             -0.0521         -DE/DX =    0.0001              !
 --------------------------------------------------------------------------------
 GradGradGradGradGradGradGradGradGradGradGradGradGradGradGradGradGradGrad

 Leave Link  103 at Mon Mar 28 18:28:37 2011, MaxMem=  268435456 cpu:       0.1
 (Enter /group/hpc-share/gaussian-2009-B01/g09/l9999.exe)
 1\1\GINC-HPC-CN42\Freq\RPBE1PBE\Gen\C1H3N1O1S1\TALIPOVM\28-Mar-2011\0\
 \#P Geom=AllCheck Guess=TCheck SCRF=Check GenChk RPBE1PBE/ChkBas Freq\
 \\0,1\C,12.5891422126,8.760299144,13.2882715257\S,11.3198210303,8.9981
 824149,14.5149894641\H,13.2479054389,7.9434727001,13.5777826711\H,13.1
 607138174,9.6940094207,13.2434406455\N,11.6085206122,10.6624724363,15.
 0728610688\O,12.5002259648,11.2604930473,14.5850564423\H,12.1436309238
 ,8.5589108367,12.3156681825\\Version=EM64L-G09RevB.01\State=1-A\HF=-56
 7.7584201\RMSD=2.862e-09\RMSF=1.261e-04\ZeroPoint=0.0449065\Thermal=0.
 0499327\Dipole=0.2979393,-0.6239126,-0.5647034\DipoleDeriv=0.0100225,-
 0.0758425,0.0053243,-0.1181872,-0.127749,0.0127104,-0.0153169,-0.02451
 98,0.0598704,0.1039887,-0.1283996,-0.151857,-0.18194,-0.8266782,-0.244
 5653,-0.1777276,-0.2908144,0.0158396,0.0225399,0.0966063,0.037368,0.07
 9327,0.0410149,0.0095088,0.0036059,-0.0107394,0.0246005,0.0312016,0.02
 04061,0.0562676,-0.0601996,0.0734617,0.0474441,0.016995,-0.023085,0.05
 80391,0.3000534,1.239678,0.2417342,0.6182086,1.7909673,0.3875385,-0.06
 1084,-0.1556544,-0.1369164,-0.5049425,-1.2014504,-0.1816045,-0.352067,
 -1.0499862,-0.1826569,0.2320814,0.5595286,0.0265284,0.0371364,0.049002
 1,-0.0072326,0.0148581,0.0989695,-0.0299795,0.0014462,-0.0547157,-0.04
 79617\Polar=43.7949816,4.6782198,60.4778651,-5.2109817,8.2094833,43.79
 04595\PG=C01 [X(C1H3N1O1S1)]\NImag=0\\0.43925166,-0.00412236,0.5409100
 0,0.09605739,-0.00148819,0.46655810,-0.10131024,-0.00429158,0.05600880
 ,0.18138996,0.00646700,-0.04351141,-0.00986167,0.03036185,0.13654401,0
 .06122937,-0.00044818,-0.08874054,-0.11152462,0.02198236,0.14528584,-0
 .14200085,0.12967839,-0.05369722,-0.01403147,0.01358756,0.00195216,0.1
 5194399,0.12685536,-0.20285042,0.05876068,-0.00114234,0.00110652,-0.00
 090807,-0.13776883,0.21509925,-0.04904662,0.05717575,-0.06296389,0.013
 42013,-0.01658411,0.00152555,0.04952314,-0.06256590,0.07060460,-0.1141
 3857,-0.12141732,0.00173940,-0.01933993,-0.00918334,0.00986565,0.01213
 929,0.01687125,-0.00115001,0.12668746,-0.11353998,-0.23284040,0.007498
 87,-0.00140098,0.00442436,0.00482884,-0.01256260,-0.01694290,-0.000260
 72,0.12920264,0.25151573,0.00558385,0.01439231,-0.04235331,0.01366177,
 0.01162925,-0.00921924,0.00507398,0.00734396,-0.00124203,-0.00863159,-
 0.01226247,0.04639223,0.01326749,0.02069710,0.00837969,-0.03374793,0.0
 4414598,0.02977816,-0.00150154,-0.00040370,0.00358673,-0.00176984,-0.0
 0284427,0.00336067,0.49229648,0.00643275,-0.01224816,-0.01708157,0.040
 82611,-0.00134385,-0.02456880,-0.00288222,-0.00291307,-0.00007258,-0.0
 0788328,-0.00020927,0.00501202,0.19316253,0.22600415,0.00146515,-0.029
 56834,-0.00432946,0.02815284,-0.02742229,-0.06224434,0.00398929,0.0013
 5881,-0.00560272,0.00090558,0.00058875,0.00315561,-0.30971807,-0.07330
 736,0.26503419,-0.00611006,0.00032076,-0.00172529,-0.01813667,-0.09201
 169,-0.01369924,0.00040302,0.00104044,-0.00067055,0.00277991,0.0013922
 3,-0.00456073,-0.46129049,-0.22979443,0.27291865,0.47784647,-0.0021071
 3,0.00413507,0.00787015,-0.06289675,-0.09641607,-0.00046058,0.00053594
 ,0.00119016,0.00030254,0.00238246,-0.00284791,-0.00190528,-0.25345501,
 -0.20697760,0.13074378,0.31705513,0.30039495,-0.00292863,0.00574797,-0
 .00291043,0.00048195,0.02497151,0.02916559,-0.00368601,-0.00204025,0.0
 0336319,-0.00407491,-0.00103259,-0.00014591,0.26140786,0.11007518,-0.1
 9557355,-0.25039692,-0.13778563,0.16618129,-0.08895943,-0.02086498,-0.
 10676277,0.00517627,0.00663264,0.02239852,-0.00695244,-0.00545218,-0.0
 1566282,-0.00635832,-0.00024705,-0.01448794,-0.00725417,0.00013853,0.0
 0228657,0.00450782,-0.00151464,-0.00080334,0.09984028,-0.01998564,-0.0
 5359468,-0.04569827,-0.00145632,-0.00080356,-0.00042558,0.00941176,0.0
 0531046,0.02200501,-0.00997240,-0.00309961,-0.02420978,-0.00130265,-0.
 00231221,-0.00239335,0.00199756,0.00052141,0.00006381,0.02130769,0.053
 97818,-0.11236051,-0.04581131,-0.26526047,-0.00020086,-0.00471506,-0.0
 1577287,-0.00315532,-0.00194923,-0.00568468,0.00134587,0.00063931,0.00
 341265,0.00320497,-0.00005690,-0.00043972,-0.00186593,0.00123502,-0.00
 008019,0.11303178,0.05065817,0.28382528\\-0.00020223,-0.00004245,0.000
 13408,0.00025868,0.00019125,-0.00008531,0.00003783,0.00000116,-0.00004
 967,0.00000665,-0.00001330,-0.00002197,-0.00000986,0.00017282,0.000039
 11,-0.00015728,-0.00030789,0.00002472,0.00006622,-0.00000159,-0.000040
 97\\\@


 KEEP CLOSE TO NATURES HEART, YOURSELF;
 AND BREAK CLEAR AWAY, ONCE IN A WHILE, AND
 CLIMB A MOUNTAIN OR SPEND A WEEK IN THE
 WOODS.  WASH YOUR SPIRIT CLEAN...
                                         -- JOHN MUIR
 Job cpu time:  0 days  0 hours 20 minutes 29.5 seconds.
 File lengths (MBytes):  RWF=     41 Int=      0 D2E=      0 Chk=      4 Scr=      1
 Normal termination of Gaussian 09 at Mon Mar 28 18:28:38 2011.
