 Entering Gaussian System, Link 0=g09
 Input=F2N.com
 Output=F2N.log
 Initial command:
 /group/hpc-share/gaussian/2009B/g09/l1.exe /tmp/g_F2N.com-298418.hn1.marqnet.mu.edu/Gau-4504.inp -scrdir=/tmp/g_F2N.com-298418.hn1.marqnet.mu.edu/
 Entering Link 1 = /group/hpc-share/gaussian/2009B/g09/l1.exe PID=      4505.
  
 Copyright (c) 1988,1990,1992,1993,1995,1998,2003,2009,2010,
            Gaussian, Inc.  All Rights Reserved.
  
 This is part of the Gaussian(R) 09 program.  It is based on
 the Gaussian(R) 03 system (copyright 2003, Gaussian, Inc.),
 the Gaussian(R) 98 system (copyright 1998, Gaussian, Inc.),
 the Gaussian(R) 94 system (copyright 1995, Gaussian, Inc.),
 the Gaussian 92(TM) system (copyright 1992, Gaussian, Inc.),
 the Gaussian 90(TM) system (copyright 1990, Gaussian, Inc.),
 the Gaussian 88(TM) system (copyright 1988, Gaussian, Inc.),
 the Gaussian 86(TM) system (copyright 1986, Carnegie Mellon
 University), and the Gaussian 82(TM) system (copyright 1983,
 Carnegie Mellon University). Gaussian is a federally registered
 trademark of Gaussian, Inc.
  
 This software contains proprietary and confidential information,
 including trade secrets, belonging to Gaussian, Inc.
  
 This software is provided under written license and may be
 used, copied, transmitted, or stored only in accord with that
 written license.
  
 The following legend is applicable only to US Government
 contracts under FAR:
  
                    RESTRICTED RIGHTS LEGEND
  
 Use, reproduction and disclosure by the US Government is
 subject to restrictions as set forth in subparagraphs (a)
 and (c) of the Commercial Computer Software - Restricted
 Rights clause in FAR 52.227-19.
  
 Gaussian, Inc.
 340 Quinnipiac St., Bldg. 40, Wallingford CT 06492
  
  
 ---------------------------------------------------------------
 Warning -- This program may not be used in any manner that
 competes with the business of Gaussian, Inc. or will provide
 assistance to any competitor of Gaussian, Inc.  The licensee
 of this program is prohibited from giving any competitor of
 Gaussian, Inc. access to this program.  By using this program,
 the user acknowledges that Gaussian, Inc. is engaged in the
 business of creating and licensing software in the field of
 computational chemistry and represents and warrants to the
 licensee that it is not a competitor of Gaussian, Inc. and that
 it will not use this program in any manner prohibited above.
 ---------------------------------------------------------------
  

 Cite this work as:
 Gaussian 09, Revision B.01,
 M. J. Frisch, G. W. Trucks, H. B. Schlegel, G. E. Scuseria, 
 M. A. Robb, J. R. Cheeseman, G. Scalmani, V. Barone, B. Mennucci, 
 G. A. Petersson, H. Nakatsuji, M. Caricato, X. Li, H. P. Hratchian, 
 A. F. Izmaylov, J. Bloino, G. Zheng, J. L. Sonnenberg, M. Hada, 
 M. Ehara, K. Toyota, R. Fukuda, J. Hasegawa, M. Ishida, T. Nakajima, 
 Y. Honda, O. Kitao, H. Nakai, T. Vreven, J. A. Montgomery, Jr., 
 J. E. Peralta, F. Ogliaro, M. Bearpark, J. J. Heyd, E. Brothers, 
 K. N. Kudin, V. N. Staroverov, T. Keith, R. Kobayashi, J. Normand, 
 K. Raghavachari, A. Rendell, J. C. Burant, S. S. Iyengar, J. Tomasi, 
 M. Cossi, N. Rega, J. M. Millam, M. Klene, J. E. Knox, J. B. Cross, 
 V. Bakken, C. Adamo, J. Jaramillo, R. Gomperts, R. E. Stratmann, 
 O. Yazyev, A. J. Austin, R. Cammi, C. Pomelli, J. W. Ochterski, 
 R. L. Martin, K. Morokuma, V. G. Zakrzewski, G. A. Voth, 
 P. Salvador, J. J. Dannenberg, S. Dapprich, A. D. Daniels, 
 O. Farkas, J. B. Foresman, J. V. Ortiz, J. Cioslowski, 
 and D. J. Fox, Gaussian, Inc., Wallingford CT, 2010.
 
 ******************************************
 Gaussian 09:  EM64L-G09RevB.01 12-Aug-2010
                26-Dec-2012 
 ******************************************
 %NProc=8
 Will use up to    8 processors via shared memory.
 %mem=8gb
 %Chk=F2N.chk
 ----------------------------------------------------------------------
 #P m06hf/6-31G(d) pop=npa stable=opt scf(fermi,xqc,maxcyc=200) geom=ch
 eck guess=check int(grid=ultrafine) nosym
 ----------------------------------------------------------------------
 1/29=2,38=1/1;
 2/12=2,15=1,40=1/2;
 3/5=1,6=6,7=1,11=2,14=-4,16=1,25=1,30=1,74=-52,75=-5,116=-2/1,2,3;
 4/5=1/1;
 5/5=2,7=200,8=3,13=1,22=13,38=6/2,8;
 6/7=2,8=2,9=2,10=2,28=1,40=-1/1,7;
 8/6=1,10=90,11=11/1;
 9/8=-3,42=1,46=1/14;
 5/5=2,7=200,8=3,17=40,22=13,38=6/8(-2);
 6/7=2,8=2,9=2,10=2,28=1,40=-1/1,7;
 99/5=1,9=1/99;
 Leave Link    1 at Wed Dec 26 22:29:48 2012, MaxMem= 1073741824 cpu:       1.0
 (Enter /group/hpc-share/gaussian/2009B/g09/l101.exe)
 -----
 Title
 -----
 Redundant internal coordinates taken from checkpoint file:
 F2N.chk
 Charge =  1 Multiplicity = 2
 C,0,-0.3967501399,0.4427372769,1.1418601627
 C,0,-0.4376777184,-0.3040793242,3.810256429
 C,0,-0.146166065,-0.8869858064,1.5036065093
 C,0,-0.6462412298,1.4087646072,2.1086595934
 C,0,-0.6611129029,1.0247740427,3.4490651439
 C,0,-0.1812476793,-1.2711552455,2.8362202791
 H,0,-0.8219958148,2.4395216178,1.8306815431
 H,0,-0.8540246447,1.7626897251,4.2161318711
 H,0,-0.004684486,-2.3004874628,3.125055984
 H,0,-0.4661929281,-0.5876295441,4.8538480365
 C,0,-0.3507125514,0.5375621527,-0.3327912733
 C,0,-0.2404405491,0.150184376,-3.0727400031
 C,0,-0.543263241,1.6280478852,-1.1761069951
 C,0,-0.0789306059,-0.7336301996,-0.8506207363
 C,0,-0.0438072197,-0.9375769375,-2.2249956891
 C,0,-0.4796853412,1.4249714997,-2.551290658
 H,0,-0.7392410186,2.6126754882,-0.7721982917
 H,0,0.1566079415,-1.9183519558,-2.6368603971
 H,0,-0.623252182,2.2594535592,-3.2246117317
 H,0,-0.1932511776,0.0086596932,-4.1439241052
 C,0,0.1156466366,-1.7495439924,0.2715067921
 C,0,-0.9503129116,-2.865594871,0.1778429811
 H,0,-0.8378517321,-3.4145903258,-0.7584709977
 H,0,-1.9460814105,-2.4248228255,0.2150751025
 H,0,-0.8384564675,-3.5650421619,1.0087085956
 C,0,1.52266985,-2.4128024246,0.3046128984
 H,0,1.5466382881,-3.1960338721,-0.4596363696
 H,0,1.613985996,-2.9157041189,1.2724881424
 C,0,2.7920429986,-1.5379697393,0.0937222715
 C,0,4.0321655039,-2.3683713876,0.4976941212
 H,0,4.9371946458,-1.795040258,0.2992206791
 H,0,4.0664292492,-3.2980353586,-0.0738259833
 H,0,3.9900956838,-2.6128772583,1.5603141804
 C,0,2.9343069081,-1.0648649404,-1.3507403182
 C,0,3.1616952054,0.2146949531,-3.803848893
 C,0,2.9382452823,0.3339931383,-1.4229601957
 C,0,3.0737177857,-1.8280076095,-2.5009508615
 C,0,3.1844640584,-1.1783600652,-3.7321562139
 C,0,3.0418781006,0.9836289335,-2.6467390481
 H,0,3.0881522712,-2.9104850465,-2.4542768307
 H,0,3.2917145938,-1.7597949308,-4.6381001157
 H,0,3.026551971,2.0639533273,-2.7042605155
 H,0,3.2440564931,0.7027936977,-4.7656803213
 C,0,2.8353160922,0.8685559432,-0.0482942622
 C,0,2.7180334944,1.3302528035,2.6797096685
 C,0,2.7756149538,-0.208460992,0.842867698
 C,0,2.8107297763,2.1816538348,0.412715864
 C,0,2.7451587998,2.403846145,1.7848291046
 C,0,2.7381872107,0.0176363757,2.2137408409
 H,0,2.8426134564,3.0124103735,-0.2799757896
 H,0,2.7214979346,3.41659281,2.1644737876
 H,0,2.7007659167,-0.8079202531,2.91281965
 H,0,2.6662029192,1.5191646478,3.7433286666
 Recover connectivity data from disk.
                    Isotopes and Nuclear Properties:
 (Nuclear quadrupole moments (NQMom) in fm**2, nuclear magnetic moments (NMagM)
  in nuclear magnetons)

  Atom         1           2           3           4           5           6           7           8           9          10
 IAtWgt=          12          12          12          12          12          12           1           1           1           1
 AtmWgt=  12.0000000  12.0000000  12.0000000  12.0000000  12.0000000  12.0000000   1.0078250   1.0078250   1.0078250   1.0078250
 NucSpn=           0           0           0           0           0           0           1           1           1           1
 AtZEff=  -3.6000000  -3.6000000  -3.6000000  -3.6000000  -3.6000000  -3.6000000  -1.0000000  -1.0000000  -1.0000000  -1.0000000
 NQMom=    0.0000000   0.0000000   0.0000000   0.0000000   0.0000000   0.0000000   0.0000000   0.0000000   0.0000000   0.0000000
 NMagM=    0.0000000   0.0000000   0.0000000   0.0000000   0.0000000   0.0000000   2.7928460   2.7928460   2.7928460   2.7928460

  Atom        11          12          13          14          15          16          17          18          19          20
 IAtWgt=          12          12          12          12          12          12           1           1           1           1
 AtmWgt=  12.0000000  12.0000000  12.0000000  12.0000000  12.0000000  12.0000000   1.0078250   1.0078250   1.0078250   1.0078250
 NucSpn=           0           0           0           0           0           0           1           1           1           1
 AtZEff=  -3.6000000  -3.6000000  -3.6000000  -3.6000000  -3.6000000  -3.6000000  -1.0000000  -1.0000000  -1.0000000  -1.0000000
 NQMom=    0.0000000   0.0000000   0.0000000   0.0000000   0.0000000   0.0000000   0.0000000   0.0000000   0.0000000   0.0000000
 NMagM=    0.0000000   0.0000000   0.0000000   0.0000000   0.0000000   0.0000000   2.7928460   2.7928460   2.7928460   2.7928460

  Atom        21          22          23          24          25          26          27          28          29          30
 IAtWgt=          12          12           1           1           1          12           1           1          12          12
 AtmWgt=  12.0000000  12.0000000   1.0078250   1.0078250   1.0078250  12.0000000   1.0078250   1.0078250  12.0000000  12.0000000
 NucSpn=           0           0           1           1           1           0           1           1           0           0
 AtZEff=  -3.6000000  -3.6000000  -1.0000000  -1.0000000  -1.0000000  -3.6000000  -1.0000000  -1.0000000  -3.6000000  -3.6000000
 NQMom=    0.0000000   0.0000000   0.0000000   0.0000000   0.0000000   0.0000000   0.0000000   0.0000000   0.0000000   0.0000000
 NMagM=    0.0000000   0.0000000   2.7928460   2.7928460   2.7928460   0.0000000   2.7928460   2.7928460   0.0000000   0.0000000

  Atom        31          32          33          34          35          36          37          38          39          40
 IAtWgt=           1           1           1          12          12          12          12          12          12           1
 AtmWgt=   1.0078250   1.0078250   1.0078250  12.0000000  12.0000000  12.0000000  12.0000000  12.0000000  12.0000000   1.0078250
 NucSpn=           1           1           1           0           0           0           0           0           0           1
 AtZEff=  -1.0000000  -1.0000000  -1.0000000  -3.6000000  -3.6000000  -3.6000000  -3.6000000  -3.6000000  -3.6000000  -1.0000000
 NQMom=    0.0000000   0.0000000   0.0000000   0.0000000   0.0000000   0.0000000   0.0000000   0.0000000   0.0000000   0.0000000
 NMagM=    2.7928460   2.7928460   2.7928460   0.0000000   0.0000000   0.0000000   0.0000000   0.0000000   0.0000000   2.7928460

  Atom        41          42          43          44          45          46          47          48          49          50
 IAtWgt=           1           1           1          12          12          12          12          12          12           1
 AtmWgt=   1.0078250   1.0078250   1.0078250  12.0000000  12.0000000  12.0000000  12.0000000  12.0000000  12.0000000   1.0078250
 NucSpn=           1           1           1           0           0           0           0           0           0           1
 AtZEff=  -1.0000000  -1.0000000  -1.0000000  -3.6000000  -3.6000000  -3.6000000  -3.6000000  -3.6000000  -3.6000000  -1.0000000
 NQMom=    0.0000000   0.0000000   0.0000000   0.0000000   0.0000000   0.0000000   0.0000000   0.0000000   0.0000000   0.0000000
 NMagM=    2.7928460   2.7928460   2.7928460   0.0000000   0.0000000   0.0000000   0.0000000   0.0000000   0.0000000   2.7928460

  Atom        51          52          53
 IAtWgt=           1           1           1
 AtmWgt=   1.0078250   1.0078250   1.0078250
 NucSpn=           1           1           1
 AtZEff=  -1.0000000  -1.0000000  -1.0000000
 NQMom=    0.0000000   0.0000000   0.0000000
 NMagM=    2.7928460   2.7928460   2.7928460
 Leave Link  101 at Wed Dec 26 22:29:48 2012, MaxMem= 1073741824 cpu:       1.7
 (Enter /group/hpc-share/gaussian/2009B/g09/l202.exe)
 Symmetry turned off by external request.
 Stoichiometry    C29H24(1+,2)
 Framework group  C1[X(C29H24)]
 Deg. of freedom   153
 Full point group                 C1      NOp   1
                         Z-Matrix orientation:                         
 ---------------------------------------------------------------------
 Center     Atomic      Atomic             Coordinates (Angstroms)
 Number     Number       Type             X           Y           Z
 ---------------------------------------------------------------------
      1          6           0       -0.396750    0.442737    1.141860
      2          6           0       -0.437678   -0.304079    3.810256
      3          6           0       -0.146166   -0.886986    1.503607
      4          6           0       -0.646241    1.408765    2.108660
      5          6           0       -0.661113    1.024774    3.449065
      6          6           0       -0.181248   -1.271155    2.836220
      7          1           0       -0.821996    2.439522    1.830682
      8          1           0       -0.854025    1.762690    4.216132
      9          1           0       -0.004684   -2.300487    3.125056
     10          1           0       -0.466193   -0.587630    4.853848
     11          6           0       -0.350713    0.537562   -0.332791
     12          6           0       -0.240441    0.150184   -3.072740
     13          6           0       -0.543263    1.628048   -1.176107
     14          6           0       -0.078931   -0.733630   -0.850621
     15          6           0       -0.043807   -0.937577   -2.224996
     16          6           0       -0.479685    1.424971   -2.551291
     17          1           0       -0.739241    2.612675   -0.772198
     18          1           0        0.156608   -1.918352   -2.636860
     19          1           0       -0.623252    2.259454   -3.224612
     20          1           0       -0.193251    0.008660   -4.143924
     21          6           0        0.115647   -1.749544    0.271507
     22          6           0       -0.950313   -2.865595    0.177843
     23          1           0       -0.837852   -3.414590   -0.758471
     24          1           0       -1.946081   -2.424823    0.215075
     25          1           0       -0.838456   -3.565042    1.008709
     26          6           0        1.522670   -2.412802    0.304613
     27          1           0        1.546638   -3.196034   -0.459636
     28          1           0        1.613986   -2.915704    1.272488
     29          6           0        2.792043   -1.537970    0.093722
     30          6           0        4.032166   -2.368371    0.497694
     31          1           0        4.937195   -1.795040    0.299221
     32          1           0        4.066429   -3.298035   -0.073826
     33          1           0        3.990096   -2.612877    1.560314
     34          6           0        2.934307   -1.064865   -1.350740
     35          6           0        3.161695    0.214695   -3.803849
     36          6           0        2.938245    0.333993   -1.422960
     37          6           0        3.073718   -1.828008   -2.500951
     38          6           0        3.184464   -1.178360   -3.732156
     39          6           0        3.041878    0.983629   -2.646739
     40          1           0        3.088152   -2.910485   -2.454277
     41          1           0        3.291715   -1.759795   -4.638100
     42          1           0        3.026552    2.063953   -2.704261
     43          1           0        3.244056    0.702794   -4.765680
     44          6           0        2.835316    0.868556   -0.048294
     45          6           0        2.718033    1.330253    2.679710
     46          6           0        2.775615   -0.208461    0.842868
     47          6           0        2.810730    2.181654    0.412716
     48          6           0        2.745159    2.403846    1.784829
     49          6           0        2.738187    0.017636    2.213741
     50          1           0        2.842613    3.012410   -0.279976
     51          1           0        2.721498    3.416593    2.164474
     52          1           0        2.700766   -0.807920    2.912820
     53          1           0        2.666203    1.519165    3.743329
 ---------------------------------------------------------------------
 Rotational constants (GHZ):      0.2907805      0.1899520      0.1807227
 Leave Link  202 at Wed Dec 26 22:29:48 2012, MaxMem= 1073741824 cpu:       0.0
 (Enter /group/hpc-share/gaussian/2009B/g09/l301.exe)
 Standard basis: 6-31G(d) (6D, 7F)
 Ernie: Thresh=  0.10000D-02 Tol=  0.10000D-05 Strict=F.
 Integral buffers will be    131072 words long.
 Raffenetti 2 integral format.
 Two-electron integral symmetry is turned off.
   483 basis functions,   908 primitive gaussians,   483 cartesian basis functions
    99 alpha electrons       98 beta electrons
       nuclear repulsion energy      2834.5239557578 Hartrees.
 IExCor= 4033 DFT=T Ex+Corr=M06HF ExCW=0 ScaHFX=  1.000000
 ScaDFX=  1.000000  1.000000  1.000000  1.000000 ScalE2=  1.000000  1.000000
 IRadAn=      5 IRanWt=     -1 IRanGd=            0 ICorTp=0
 NAtoms=   53 NActive=   53 NUniq=   53 SFac= 1.00D+00 NAtFMM=   50 NAOKFM=T Big=T
 Leave Link  301 at Wed Dec 26 22:29:48 2012, MaxMem= 1073741824 cpu:       0.7
 (Enter /group/hpc-share/gaussian/2009B/g09/l302.exe)
 NPDir=0 NMtPBC=     1 NCelOv=     1 NCel=       1 NClECP=     1 NCelD=      1
         NCelK=      1 NCelE2=     1 NClLst=     1 CellRange=     0.0.
 One-electron integrals computed using PRISM.
 NBasis=   483 RedAO= T  NBF=   483
 NBsUse=   483 1.00D-06 NBFU=   483
 Precomputing XC quadrature grid using
 IXCGrd= 2 IRadAn=           5 IRanWt=          -1 IRanGd=           0 AccXCQ= 0.00D+00.
 NRdTot=    4410 NPtTot=     1188492 NUsed=     1220064 NTot=     1220096
 NSgBfM=   480   480   480   480   480 NAtAll=    53    53.
 Leave Link  302 at Wed Dec 26 22:29:50 2012, MaxMem= 1073741824 cpu:      11.6
 (Enter /group/hpc-share/gaussian/2009B/g09/l303.exe)
 DipDrv:  MaxL=1.
 Leave Link  303 at Wed Dec 26 22:29:50 2012, MaxMem= 1073741824 cpu:       0.6
 (Enter /group/hpc-share/gaussian/2009B/g09/l401.exe)
 Initial guess read from the checkpoint file:  F2N.chk
 B after Tr=     0.000000    0.000000    0.000000
         Rot=    1.000000    0.000000    0.000000    0.000000 Ang=   0.00 deg.
 Guess basis will be translated and rotated to current coordinates.
 Initial guess <Sx>= 0.0000 <Sy>= 0.0000 <Sz>= 0.5000 <S**2>= 0.7668 S= 0.5084
 Leave Link  401 at Wed Dec 26 22:29:52 2012, MaxMem= 1073741824 cpu:      13.2
 (Enter /group/hpc-share/gaussian/2009B/g09/l502.exe)
 UHF open shell SCF:
 Requested convergence on RMS density matrix=1.00D-08 within 128 cycles.
 Requested convergence on MAX density matrix=1.00D-06.
 Requested convergence on             energy=1.00D-06.
 Level shift goal  0.100 maximum shift  0.100.
 No special actions if energy rises.
 Dynamic level shift is on during FON iterations.
 Using DIIS extrapolation, IDIIS=    10.
 Two-electron integral symmetry not used.
      1219574 words used for storage of precomputed grid.
 IEnd=     1944455 IEndB=     1944455 NGot=  1073741824 MDV=  1072047782
 LenX=  1072047782 LenY=  1071814010
 Fock matrices will be formed incrementally for  20 cycles.

 Cycle   1  Pass 1  IDiag  1:
 FoFCou: FMM=T IPFlag=           0 FMFlag=      100000 FMFlg1=        2001
         NFxFlg=           0 DoJE=F BraDBF=F KetDBF=F FulRan=T
         Omega=  0.000000  0.000000  1.000000  0.000000  0.000000 ICntrl=       0 IOpCl=  1
         NMat0=    1 NMatS0=    1 NMatT0=    0 NMatD0=    1 NMtDS0=    0 NMtDT0=    0
         I1Cent=           0 NGrid=           0.
 Symmetry not used in FoFCou.
 FMM levels:  10  Number of levels for PrismC:   9
 E= -1119.03999831763    
 DIIS: error= 3.35D-08 at cycle   1 NSaved=   1.
 NSaved= 1 IEnMin= 1 EnMin= -1119.03999831763     IErMin= 1 ErrMin= 3.35D-08
 ErrMax= 3.35D-08 EMaxC= 1.00D+00 BMatC= 7.75D-14 BMatP= 7.75D-14
 IDIUse=1 WtCom= 1.00D+00 WtEn= 0.00D+00
 Coeff-Com:  0.100D+01
 Coeff:      0.100D+01
 Gap=     0.364 Goal=     0.100 Shift=    0.000
 Gap=     0.132 Goal=     0.100 Shift=    0.000
 RMSDP=9.13D-10 MaxDP=3.89D-08              OVMax= 4.54D-07

 SCF Done:  E(UM06HF) =  -1119.03999832     A.U. after    1 cycles
             Convg  =    0.9130D-09             -V/T =  2.0093
 <Sx>= 0.0000 <Sy>= 0.0000 <Sz>= 0.5000 <S**2>= 0.7668 S= 0.5084
 <L.S>= 0.000000000000E+00
 KE= 1.108685188280D+03 PE=-8.233424814585D+03 EE= 3.171175672229D+03
 Annihilation of the first spin contaminant:
 S**2 before annihilation     0.7668,   after     0.7502
 Leave Link  502 at Wed Dec 26 22:31:08 2012, MaxMem= 1073741824 cpu:     612.2
 (Enter /group/hpc-share/gaussian/2009B/g09/l508.exe)
 QCSCF skips out because SCF is already converged.
 Leave Link  508 at Wed Dec 26 22:31:09 2012, MaxMem= 1073741824 cpu:       0.0
 (Enter /group/hpc-share/gaussian/2009B/g09/l601.exe)
 Copying SCF densities to generalized density rwf, IOpCl= 1 IROHF=0.

 **********************************************************************

            Population analysis using the SCF density.

 **********************************************************************

 Alpha  occ. eigenvalues --  -11.11734 -11.11731 -11.11615 -11.11613 -11.11245
 Alpha  occ. eigenvalues --  -11.11244 -11.11180 -11.11179 -11.11109 -11.11108
 Alpha  occ. eigenvalues --  -11.10989 -11.10988 -11.10405 -11.10404 -11.10303
 Alpha  occ. eigenvalues --  -11.10302 -11.10023 -11.10023 -11.09785 -11.09765
 Alpha  occ. eigenvalues --  -11.09764 -11.09642 -11.09641 -11.09476 -11.09476
 Alpha  occ. eigenvalues --  -11.09449 -11.09448 -11.06999 -11.06998  -1.25670
 Alpha  occ. eigenvalues --   -1.24084  -1.19883  -1.19320  -1.16498  -1.14093
 Alpha  occ. eigenvalues --   -1.11555  -1.10443  -1.07599  -1.07097  -1.06549
 Alpha  occ. eigenvalues --   -1.04484  -1.04384  -1.04337  -0.99647  -0.96085
 Alpha  occ. eigenvalues --   -0.95904  -0.93246  -0.92819  -0.89018  -0.88744
 Alpha  occ. eigenvalues --   -0.88296  -0.87979  -0.86935  -0.85519  -0.80770
 Alpha  occ. eigenvalues --   -0.80007  -0.79412  -0.78692  -0.76237  -0.75241
 Alpha  occ. eigenvalues --   -0.74030  -0.73840  -0.73617  -0.72762  -0.72303
 Alpha  occ. eigenvalues --   -0.71962  -0.71370  -0.71192  -0.69747  -0.69691
 Alpha  occ. eigenvalues --   -0.69392  -0.68861  -0.67908  -0.66130  -0.65822
 Alpha  occ. eigenvalues --   -0.65512  -0.65197  -0.65129  -0.64727  -0.64470
 Alpha  occ. eigenvalues --   -0.63856  -0.62115  -0.61345  -0.61231  -0.60113
 Alpha  occ. eigenvalues --   -0.59701  -0.58593  -0.58037  -0.57543  -0.57037
 Alpha  occ. eigenvalues --   -0.56264  -0.54148  -0.52826  -0.50567  -0.50073
 Alpha  occ. eigenvalues --   -0.48062  -0.46126  -0.45307  -0.44942
 Alpha virt. eigenvalues --   -0.08538  -0.08098  -0.06272  -0.05101  -0.03328
 Alpha virt. eigenvalues --   -0.02911   0.00332   0.00729   0.03757   0.06945
 Alpha virt. eigenvalues --    0.07313   0.07703   0.07912   0.08582   0.09211
 Alpha virt. eigenvalues --    0.10556   0.11483   0.12177   0.12630   0.12836
 Alpha virt. eigenvalues --    0.13264   0.13779   0.14171   0.14192   0.14819
 Alpha virt. eigenvalues --    0.15204   0.16010   0.16450   0.17084   0.17357
 Alpha virt. eigenvalues --    0.18564   0.18967   0.19380   0.19587   0.21023
 Alpha virt. eigenvalues --    0.21273   0.21541   0.21654   0.21699   0.22303
 Alpha virt. eigenvalues --    0.23197   0.23244   0.23578   0.23882   0.24161
 Alpha virt. eigenvalues --    0.24696   0.26288   0.26769   0.26931   0.27734
 Alpha virt. eigenvalues --    0.28384   0.29290   0.29352   0.29655   0.33305
 Alpha virt. eigenvalues --    0.33548   0.34616   0.35867   0.35885   0.36719
 Alpha virt. eigenvalues --    0.37431   0.37725   0.38164   0.38617   0.42713
 Alpha virt. eigenvalues --    0.44274   0.44294   0.45644   0.46191   0.46857
 Alpha virt. eigenvalues --    0.47527   0.48308   0.49499   0.49830   0.51060
 Alpha virt. eigenvalues --    0.51776   0.51877   0.52438   0.52769   0.53146
 Alpha virt. eigenvalues --    0.53400   0.54062   0.54274   0.54476   0.54736
 Alpha virt. eigenvalues --    0.55308   0.55601   0.56586   0.56804   0.56822
 Alpha virt. eigenvalues --    0.57878   0.58141   0.58349   0.58525   0.58755
 Alpha virt. eigenvalues --    0.60058   0.60078   0.61416   0.61591   0.62266
 Alpha virt. eigenvalues --    0.62479   0.63062   0.63316   0.63768   0.64225
 Alpha virt. eigenvalues --    0.65681   0.66122   0.66583   0.68047   0.70214
 Alpha virt. eigenvalues --    0.70349   0.72203   0.73042   0.74240   0.74445
 Alpha virt. eigenvalues --    0.74668   0.75518   0.76024   0.76447   0.76994
 Alpha virt. eigenvalues --    0.77600   0.79032   0.79386   0.80661   0.81846
 Alpha virt. eigenvalues --    0.82569   0.82644   0.83211   0.83341   0.84593
 Alpha virt. eigenvalues --    0.84848   0.85974   0.86378   0.86709   0.87149
 Alpha virt. eigenvalues --    0.87195   0.88044   0.88313   0.89299   0.89439
 Alpha virt. eigenvalues --    0.89640   0.90099   0.91535   0.91784   0.92463
 Alpha virt. eigenvalues --    0.93001   0.93060   0.93762   0.93859   0.94507
 Alpha virt. eigenvalues --    0.94927   0.95025   0.95048   0.95812   0.96618
 Alpha virt. eigenvalues --    0.97215   0.97542   0.97756   0.98328   0.99010
 Alpha virt. eigenvalues --    0.99467   1.00671   1.01032   1.01252   1.01401
 Alpha virt. eigenvalues --    1.02435   1.03997   1.04324   1.05215   1.07119
 Alpha virt. eigenvalues --    1.07412   1.08427   1.08445   1.08926   1.09799
 Alpha virt. eigenvalues --    1.11266   1.11900   1.14412   1.15614   1.16334
 Alpha virt. eigenvalues --    1.18340   1.18622   1.20341   1.20745   1.21154
 Alpha virt. eigenvalues --    1.21930   1.21983   1.22979   1.24598   1.25156
 Alpha virt. eigenvalues --    1.26151   1.28728   1.29781   1.31511   1.32488
 Alpha virt. eigenvalues --    1.32512   1.34125   1.36542   1.38348   1.38730
 Alpha virt. eigenvalues --    1.39573   1.40810   1.40991   1.43262   1.44178
 Alpha virt. eigenvalues --    1.45003   1.45880   1.46904   1.47297   1.47457
 Alpha virt. eigenvalues --    1.48213   1.48373   1.48847   1.49613   1.49817
 Alpha virt. eigenvalues --    1.50641   1.51369   1.51755   1.51930   1.52526
 Alpha virt. eigenvalues --    1.52976   1.55891   1.57502   1.61164   1.63847
 Alpha virt. eigenvalues --    1.66345   1.66484   1.68349   1.71140   1.73303
 Alpha virt. eigenvalues --    1.73615   1.75001   1.75658   1.75671   1.76439
 Alpha virt. eigenvalues --    1.78354   1.78673   1.80038   1.80895   1.82754
 Alpha virt. eigenvalues --    1.82790   1.84236   1.84353   1.87169   1.87829
 Alpha virt. eigenvalues --    1.89448   1.90620   1.91784   1.93234   1.94024
 Alpha virt. eigenvalues --    1.94569   1.94992   1.96782   1.97429   1.97828
 Alpha virt. eigenvalues --    1.99474   2.02146   2.03525   2.03966   2.04815
 Alpha virt. eigenvalues --    2.05020   2.05070   2.05601   2.05890   2.06213
 Alpha virt. eigenvalues --    2.06931   2.07498   2.07814   2.08337   2.08582
 Alpha virt. eigenvalues --    2.09020   2.10303   2.12286   2.12433   2.13577
 Alpha virt. eigenvalues --    2.14420   2.15679   2.17592   2.17673   2.18224
 Alpha virt. eigenvalues --    2.18463   2.18790   2.19708   2.19782   2.21025
 Alpha virt. eigenvalues --    2.21506   2.22103   2.23142   2.24150   2.24365
 Alpha virt. eigenvalues --    2.24415   2.25695   2.26229   2.26691   2.28318
 Alpha virt. eigenvalues --    2.28740   2.28880   2.29239   2.32213   2.33141
 Alpha virt. eigenvalues --    2.34382   2.36353   2.39051   2.39878   2.40167
 Alpha virt. eigenvalues --    2.40549   2.43443   2.44161   2.45351   2.46180
 Alpha virt. eigenvalues --    2.47468   2.49246   2.51671   2.51893   2.52785
 Alpha virt. eigenvalues --    2.54387   2.54469   2.56107   2.56309   2.57266
 Alpha virt. eigenvalues --    2.60332   2.60898   2.61032   2.61048   2.62743
 Alpha virt. eigenvalues --    2.63477   2.63932   2.64479   2.64690   2.65348
 Alpha virt. eigenvalues --    2.65569   2.65846   2.66485   2.69561   2.70618
 Alpha virt. eigenvalues --    2.71706   2.71735   2.73171   2.74443   2.75942
 Alpha virt. eigenvalues --    2.76922   2.81317   2.82496   2.83384   2.86668
 Alpha virt. eigenvalues --    2.87480   2.93363   2.95482   2.97454   3.09744
 Alpha virt. eigenvalues --    3.12478   3.26770   3.27221   3.38111   3.38736
 Alpha virt. eigenvalues --    3.89502   3.92147   3.93812   3.98624   3.99116
 Alpha virt. eigenvalues --    3.99729   4.03036   4.05082   4.06160   4.10170
 Alpha virt. eigenvalues --    4.11283   4.14586   4.15705   4.17199   4.19422
 Alpha virt. eigenvalues --    4.20550   4.22230   4.27378   4.28328   4.30515
 Alpha virt. eigenvalues --    4.33217   4.34342   4.39628   4.51804   4.53387
 Alpha virt. eigenvalues --    4.65033   4.69400   4.69914   4.79450
  Beta  occ. eigenvalues --  -11.11757 -11.11754 -11.11643 -11.11641 -11.11272
  Beta  occ. eigenvalues --  -11.11272 -11.11189 -11.11188 -11.11125 -11.11123
  Beta  occ. eigenvalues --  -11.11010 -11.11009 -11.10419 -11.10417 -11.10313
  Beta  occ. eigenvalues --  -11.10312 -11.10036 -11.10036 -11.09783 -11.09774
  Beta  occ. eigenvalues --  -11.09773 -11.09649 -11.09647 -11.09483 -11.09483
  Beta  occ. eigenvalues --  -11.09457 -11.09456 -11.06998 -11.06997  -1.25402
  Beta  occ. eigenvalues --   -1.23778  -1.19625  -1.19007  -1.16370  -1.13872
  Beta  occ. eigenvalues --   -1.11331  -1.10247  -1.07485  -1.06979  -1.06468
  Beta  occ. eigenvalues --   -1.04379  -1.03981  -1.03731  -0.99610  -0.95808
  Beta  occ. eigenvalues --   -0.95630  -0.93097  -0.92708  -0.88842  -0.88506
  Beta  occ. eigenvalues --   -0.88063  -0.87761  -0.86720  -0.85298  -0.80634
  Beta  occ. eigenvalues --   -0.79897  -0.79212  -0.78453  -0.76020  -0.74870
  Beta  occ. eigenvalues --   -0.73824  -0.73460  -0.73220  -0.72693  -0.72151
  Beta  occ. eigenvalues --   -0.71919  -0.71122  -0.70907  -0.69436  -0.69416
  Beta  occ. eigenvalues --   -0.68990  -0.68568  -0.67184  -0.66088  -0.65444
  Beta  occ. eigenvalues --   -0.65229  -0.65015  -0.65012  -0.64586  -0.64012
  Beta  occ. eigenvalues --   -0.63297  -0.61042  -0.60857  -0.60355  -0.59910
  Beta  occ. eigenvalues --   -0.59461  -0.58257  -0.57656  -0.57282  -0.56698
  Beta  occ. eigenvalues --   -0.56015  -0.52973  -0.50808  -0.49794  -0.49639
  Beta  occ. eigenvalues --   -0.47898  -0.45457  -0.41273
  Beta virt. eigenvalues --   -0.28043  -0.08240  -0.07108  -0.05835  -0.04470
  Beta virt. eigenvalues --   -0.02396  -0.02219   0.01285   0.01428   0.03795
  Beta virt. eigenvalues --    0.06996   0.07337   0.07736   0.07981   0.08616
  Beta virt. eigenvalues --    0.09245   0.10597   0.11543   0.12256   0.12719
  Beta virt. eigenvalues --    0.12872   0.13287   0.13791   0.14149   0.14210
  Beta virt. eigenvalues --    0.14873   0.15223   0.16076   0.16553   0.17181
  Beta virt. eigenvalues --    0.17458   0.18616   0.19080   0.19445   0.19624
  Beta virt. eigenvalues --    0.21059   0.21393   0.21574   0.21647   0.21800
  Beta virt. eigenvalues --    0.22326   0.23272   0.23288   0.23549   0.23941
  Beta virt. eigenvalues --    0.24193   0.24753   0.26349   0.26769   0.26959
  Beta virt. eigenvalues --    0.27773   0.28390   0.29304   0.29454   0.29747
  Beta virt. eigenvalues --    0.33472   0.33660   0.34726   0.35849   0.36046
  Beta virt. eigenvalues --    0.37078   0.37595   0.37702   0.38317   0.39148
  Beta virt. eigenvalues --    0.43126   0.44470   0.44694   0.45888   0.46812
  Beta virt. eigenvalues --    0.47040   0.47861   0.48719   0.49793   0.50046
  Beta virt. eigenvalues --    0.51260   0.51958   0.52013   0.52579   0.53010
  Beta virt. eigenvalues --    0.53231   0.53517   0.54162   0.54580   0.54593
  Beta virt. eigenvalues --    0.54876   0.55421   0.55815   0.56630   0.56901
  Beta virt. eigenvalues --    0.57122   0.58169   0.58441   0.58475   0.58637
  Beta virt. eigenvalues --    0.59009   0.60323   0.60450   0.61664   0.61768
  Beta virt. eigenvalues --    0.62567   0.62755   0.63271   0.63657   0.64134
  Beta virt. eigenvalues --    0.64581   0.66008   0.66750   0.66847   0.68305
  Beta virt. eigenvalues --    0.70558   0.70612   0.72602   0.73214   0.74500
  Beta virt. eigenvalues --    0.74586   0.75062   0.75724   0.76383   0.76560
  Beta virt. eigenvalues --    0.77283   0.77833   0.79197   0.79669   0.80870
  Beta virt. eigenvalues --    0.81945   0.82834   0.82952   0.83304   0.83678
  Beta virt. eigenvalues --    0.84701   0.85082   0.86070   0.86665   0.86809
  Beta virt. eigenvalues --    0.87410   0.87650   0.88197   0.88879   0.89508
  Beta virt. eigenvalues --    0.89713   0.89847   0.90530   0.91689   0.92046
  Beta virt. eigenvalues --    0.92759   0.93410   0.93471   0.93978   0.94167
  Beta virt. eigenvalues --    0.94805   0.95111   0.95176   0.95389   0.95909
  Beta virt. eigenvalues --    0.96709   0.97346   0.97603   0.97953   0.98505
  Beta virt. eigenvalues --    0.99301   0.99773   1.00878   1.01184   1.01374
  Beta virt. eigenvalues --    1.01679   1.02886   1.04288   1.04513   1.05460
  Beta virt. eigenvalues --    1.07308   1.07612   1.08512   1.08587   1.09162
  Beta virt. eigenvalues --    1.09946   1.11551   1.11978   1.14848   1.16029
  Beta virt. eigenvalues --    1.16495   1.18572   1.18881   1.20588   1.20868
  Beta virt. eigenvalues --    1.21292   1.22254   1.22327   1.23341   1.25045
  Beta virt. eigenvalues --    1.25607   1.26730   1.29031   1.30101   1.31810
  Beta virt. eigenvalues --    1.32840   1.32977   1.34623   1.36730   1.38597
  Beta virt. eigenvalues --    1.39023   1.39756   1.40889   1.41307   1.43605
  Beta virt. eigenvalues --    1.44429   1.45339   1.46289   1.47450   1.48018
  Beta virt. eigenvalues --    1.48144   1.48652   1.49061   1.49516   1.49841
  Beta virt. eigenvalues --    1.50328   1.51038   1.51893   1.52023   1.52245
  Beta virt. eigenvalues --    1.52760   1.53290   1.55985   1.57507   1.61387
  Beta virt. eigenvalues --    1.63786   1.66242   1.66778   1.68718   1.71310
  Beta virt. eigenvalues --    1.73520   1.74075   1.75252   1.75901   1.75924
  Beta virt. eigenvalues --    1.76668   1.78606   1.79039   1.80280   1.81090
  Beta virt. eigenvalues --    1.83103   1.83117   1.84355   1.84428   1.87335
  Beta virt. eigenvalues --    1.87950   1.89656   1.90694   1.91924   1.93276
  Beta virt. eigenvalues --    1.94158   1.94744   1.95139   1.96882   1.97611
  Beta virt. eigenvalues --    1.98004   1.99668   2.02436   2.03879   2.04182
  Beta virt. eigenvalues --    2.05057   2.05400   2.05525   2.05856   2.06240
  Beta virt. eigenvalues --    2.06539   2.07225   2.07614   2.08013   2.08653
  Beta virt. eigenvalues --    2.08708   2.09183   2.10462   2.12452   2.12721
  Beta virt. eigenvalues --    2.13764   2.14921   2.15990   2.17757   2.17904
  Beta virt. eigenvalues --    2.18467   2.18856   2.19134   2.20208   2.20218
  Beta virt. eigenvalues --    2.21431   2.21914   2.22543   2.23358   2.24501
  Beta virt. eigenvalues --    2.24731   2.24877   2.25953   2.26538   2.27052
  Beta virt. eigenvalues --    2.28518   2.28938   2.29339   2.29357   2.32596
  Beta virt. eigenvalues --    2.33483   2.34753   2.36658   2.39301   2.39979
  Beta virt. eigenvalues --    2.40343   2.40824   2.43737   2.44338   2.45550
  Beta virt. eigenvalues --    2.46289   2.47638   2.49396   2.51970   2.52106
  Beta virt. eigenvalues --    2.53147   2.54498   2.54685   2.56388   2.56511
  Beta virt. eigenvalues --    2.57562   2.60500   2.61092   2.61726   2.61780
  Beta virt. eigenvalues --    2.62955   2.63678   2.64194   2.64765   2.64849
  Beta virt. eigenvalues --    2.65489   2.65876   2.66077   2.66761   2.70023
  Beta virt. eigenvalues --    2.71116   2.72148   2.72311   2.73835   2.74870
  Beta virt. eigenvalues --    2.76299   2.77208   2.81684   2.82778   2.83789
  Beta virt. eigenvalues --    2.87065   2.87999   2.94005   2.95846   2.97798
  Beta virt. eigenvalues --    3.10186   3.12907   3.27115   3.27552   3.38361
  Beta virt. eigenvalues --    3.39002   3.90167   3.92686   3.94483   3.99683
  Beta virt. eigenvalues --    3.99710   4.00282   4.03739   4.05325   4.06353
  Beta virt. eigenvalues --    4.10323   4.11745   4.14761   4.16141   4.17591
  Beta virt. eigenvalues --    4.19570   4.20780   4.22663   4.28077   4.29114
  Beta virt. eigenvalues --    4.31502   4.33928   4.35057   4.40068   4.52425
  Beta virt. eigenvalues --    4.53936   4.65816   4.69989   4.70924   4.79704
          Condensed to atoms (all electrons):
 Mulliken atomic charges:
              1
     1  C    0.032825
     2  C   -0.162559
     3  C    0.016404
     4  C   -0.140883
     5  C   -0.202978
     6  C   -0.204137
     7  H    0.219896
     8  H    0.229152
     9  H    0.215888
    10  H    0.233867
    11  C    0.035738
    12  C   -0.174554
    13  C   -0.158455
    14  C    0.001374
    15  C   -0.184221
    16  C   -0.198705
    17  H    0.214308
    18  H    0.204166
    19  H    0.221870
    20  H    0.218046
    21  C   -0.120652
    22  C   -0.455083
    23  H    0.192350
    24  H    0.205296
    25  H    0.190551
    26  C   -0.243934
    27  H    0.192578
    28  H    0.192583
    29  C   -0.120490
    30  C   -0.455164
    31  H    0.205327
    32  H    0.190546
    33  H    0.192322
    34  C    0.016195
    35  C   -0.202933
    36  C    0.033011
    37  C   -0.204021
    38  C   -0.162678
    39  C   -0.141060
    40  H    0.215910
    41  H    0.233872
    42  H    0.219880
    43  H    0.229151
    44  C    0.035744
    45  C   -0.174644
    46  C    0.001354
    47  C   -0.158486
    48  C   -0.198565
    49  C   -0.184352
    50  H    0.214293
    51  H    0.221856
    52  H    0.204186
    53  H    0.218013
 Sum of Mulliken atomic charges =   1.00000
 Mulliken charges with hydrogens summed into heavy atoms:
              1
     1  C    0.032825
     2  C    0.071308
     3  C    0.016404
     4  C    0.079013
     5  C    0.026175
     6  C    0.011750
    11  C    0.035738
    12  C    0.043492
    13  C    0.055854
    14  C    0.001374
    15  C    0.019945
    16  C    0.023165
    21  C   -0.120652
    22  C    0.133115
    26  C    0.141227
    29  C   -0.120490
    30  C    0.133031
    34  C    0.016195
    35  C    0.026219
    36  C    0.033011
    37  C    0.011888
    38  C    0.071193
    39  C    0.078820
    44  C    0.035744
    45  C    0.043369
    46  C    0.001354
    47  C    0.055808
    48  C    0.023291
    49  C    0.019833
 Sum of Mulliken charges with hydrogens summed into heavy atoms =   1.00000
          Atomic-Atomic Spin Densities.
              1          2          3          4          5          6
     1  C    0.040597  -0.001457   0.029894   0.020770  -0.003093   0.002853
     2  C   -0.001457   0.137199  -0.008523  -0.002963   0.025362  -0.003742
     3  C    0.029894  -0.008523   0.124651   0.005313  -0.001769   0.000114
     4  C    0.020770  -0.002963   0.005313   0.017299  -0.015163  -0.001735
     5  C   -0.003093   0.025362  -0.001769  -0.015163   0.013859   0.001889
     6  C    0.002853  -0.003742   0.000114  -0.001735   0.001889  -0.050166
     7  H    0.000673  -0.000069  -0.000115   0.000062   0.000173   0.000034
     8  H   -0.000023   0.000264   0.000008  -0.000262   0.000067  -0.000050
     9  H   -0.000168  -0.000002   0.000105   0.000030  -0.000114   0.001028
    10  H   -0.000019  -0.001157   0.000073   0.000034   0.000422  -0.000013
    11  C   -0.029245   0.000096  -0.007483  -0.000813   0.000161   0.000056
    12  C    0.000050   0.000000   0.000021   0.000000   0.000000   0.000000
    13  C    0.000030  -0.000001  -0.000081  -0.000162   0.000004   0.000011
    14  C   -0.005960   0.000026  -0.005949  -0.000120   0.000006  -0.000210
    15  C    0.000055   0.000000  -0.000198   0.000012   0.000000   0.000000
    16  C    0.000149   0.000000   0.000010   0.000008   0.000000   0.000000
    17  H    0.000067   0.000000   0.000004  -0.000036   0.000001   0.000000
    18  H    0.000002   0.000000   0.000000   0.000000   0.000000   0.000000
    19  H    0.000000   0.000000   0.000000   0.000000   0.000000   0.000000
    20  H    0.000000   0.000000   0.000000   0.000000   0.000000   0.000000
    21  C   -0.000138  -0.000019  -0.002902  -0.000346   0.000069   0.001703
    22  C    0.000185  -0.000006   0.000342  -0.000002  -0.000003  -0.000037
    23  H    0.000012   0.000000   0.000191   0.000000   0.000000   0.000001
    24  H   -0.000088   0.000001   0.000120   0.000003   0.000000   0.000016
    25  H   -0.000019   0.000011  -0.000467   0.000000   0.000000  -0.000005
    26  C    0.000291   0.000003   0.000315   0.000004  -0.000004  -0.000057
    27  H    0.000003   0.000000  -0.000018   0.000000   0.000000   0.000004
    28  H   -0.000002  -0.000006   0.000118   0.000001   0.000000  -0.000075
    29  C   -0.000061   0.000003  -0.000389  -0.000002   0.000001  -0.000032
    30  C    0.000002   0.000000  -0.000017   0.000000   0.000000  -0.000002
    31  H    0.000000   0.000000   0.000000   0.000000   0.000000   0.000000
    32  H    0.000000   0.000000   0.000004   0.000000   0.000000   0.000000
    33  H   -0.000002   0.000001  -0.000025   0.000000   0.000000   0.000002
    34  C    0.000293  -0.000001   0.000414   0.000004   0.000000   0.000000
    35  C   -0.000001   0.000000   0.000000   0.000000   0.000000   0.000000
    36  C    0.000778  -0.000001   0.000295   0.000017  -0.000001   0.000000
    37  C    0.000000   0.000000   0.000000   0.000000   0.000000   0.000000
    38  C   -0.000001   0.000000  -0.000001   0.000000   0.000000   0.000000
    39  C    0.000018   0.000000   0.000004   0.000000   0.000000   0.000000
    40  H    0.000000   0.000000   0.000000   0.000000   0.000000   0.000000
    41  H    0.000000   0.000000   0.000000   0.000000   0.000000   0.000000
    42  H    0.000000   0.000000   0.000000   0.000000   0.000000   0.000000
    43  H    0.000000   0.000000   0.000000   0.000000   0.000000   0.000000
    44  C   -0.002640   0.000019  -0.001382  -0.000311   0.000034  -0.000011
    45  C    0.002295  -0.001708   0.001278   0.001884  -0.002582  -0.000031
    46  C   -0.006171   0.000404  -0.008414  -0.000531   0.000257   0.000256
    47  C   -0.001224   0.000011  -0.000152  -0.000233   0.000047   0.000003
    48  C    0.000986  -0.000097   0.000234   0.001254  -0.000390  -0.000003
    49  C    0.000262   0.000024   0.000108   0.000039  -0.000002   0.000585
    50  H    0.000000   0.000000   0.000000   0.000000   0.000000   0.000000
    51  H    0.000001   0.000000   0.000000   0.000004  -0.000002   0.000000
    52  H   -0.000013   0.000033  -0.000100  -0.000007   0.000015  -0.000198
    53  H   -0.000014   0.000107  -0.000015  -0.000048   0.000069   0.000003
              7          8          9         10         11         12
     1  C    0.000673  -0.000023  -0.000168  -0.000019  -0.029245   0.000050
     2  C   -0.000069   0.000264  -0.000002  -0.001157   0.000096   0.000000
     3  C   -0.000115   0.000008   0.000105   0.000073  -0.007483   0.000021
     4  C    0.000062  -0.000262   0.000030   0.000034  -0.000813   0.000000
     5  C    0.000173   0.000067  -0.000114   0.000422   0.000161   0.000000
     6  C    0.000034  -0.000050   0.001028  -0.000013   0.000056   0.000000
     7  H   -0.002155   0.000048   0.000000   0.000001   0.000067   0.000000
     8  H    0.000048  -0.001677   0.000000  -0.000121   0.000000   0.000000
     9  H    0.000000   0.000000   0.000200  -0.000011   0.000004   0.000000
    10  H    0.000001  -0.000121  -0.000011  -0.005415  -0.000001   0.000000
    11  C    0.000067   0.000000   0.000004  -0.000001   0.052848  -0.001087
    12  C    0.000000   0.000000   0.000000   0.000000  -0.001087   0.049664
    13  C   -0.000024   0.000000   0.000000   0.000000   0.014207  -0.000756
    14  C    0.000003   0.000000  -0.000003   0.000000   0.024729  -0.004102
    15  C    0.000000   0.000000   0.000000   0.000000   0.001942  -0.001937
    16  C    0.000001   0.000000   0.000000   0.000000  -0.003074   0.014453
    17  H   -0.000013   0.000000   0.000000   0.000000   0.000431  -0.000052
    18  H    0.000000   0.000000   0.000000   0.000000  -0.000143   0.000006
    19  H    0.000000   0.000000   0.000000   0.000000   0.000013   0.000173
    20  H    0.000000   0.000000   0.000000   0.000000  -0.000012  -0.000539
    21  C    0.000001   0.000000   0.000116   0.000001   0.001438  -0.000080
    22  C    0.000000   0.000000  -0.000008   0.000000   0.000198   0.000005
    23  H    0.000000   0.000000   0.000001   0.000000  -0.000026   0.000009
    24  H    0.000000   0.000000  -0.000002   0.000000  -0.000091   0.000000
    25  H    0.000000   0.000000  -0.000006   0.000000   0.000006   0.000000
    26  C    0.000000   0.000000  -0.000012   0.000000  -0.000190   0.000009
    27  H    0.000000   0.000000   0.000001   0.000000  -0.000002  -0.000003
    28  H    0.000000   0.000000  -0.000011   0.000000   0.000004   0.000000
    29  C    0.000000   0.000000   0.000000   0.000000   0.000242  -0.000009
    30  C    0.000000   0.000000   0.000000   0.000000   0.000004   0.000000
    31  H    0.000000   0.000000   0.000000   0.000000   0.000000   0.000000
    32  H    0.000000   0.000000   0.000000   0.000000   0.000000   0.000000
    33  H    0.000000   0.000000   0.000000   0.000000   0.000001   0.000000
    34  C    0.000000   0.000000   0.000000   0.000000  -0.001373   0.001269
    35  C    0.000000   0.000000   0.000000   0.000000   0.000034  -0.002572
    36  C    0.000000   0.000000   0.000000   0.000000  -0.002637   0.002287
    37  C    0.000000   0.000000   0.000000   0.000000  -0.000010  -0.000032
    38  C    0.000000   0.000000   0.000000   0.000000   0.000019  -0.001695
    39  C    0.000000   0.000000   0.000000   0.000000  -0.000312   0.001888
    40  H    0.000000   0.000000   0.000000   0.000000   0.000000   0.000000
    41  H    0.000000   0.000000   0.000000   0.000000   0.000000   0.000002
    42  H    0.000000   0.000000   0.000000   0.000000  -0.000001   0.000014
    43  H    0.000000   0.000000   0.000000   0.000000   0.000000   0.000000
    44  C   -0.000001   0.000000   0.000000   0.000000   0.005755  -0.000245
    45  C    0.000014   0.000001   0.000000   0.000002  -0.000245   0.000000
    46  C   -0.000004   0.000000   0.000001   0.000000   0.003221  -0.000040
    47  C   -0.000020   0.000000   0.000000   0.000000   0.000831  -0.000016
    48  C    0.000012   0.000000   0.000000   0.000000  -0.000448   0.000001
    49  C    0.000002   0.000001   0.000004  -0.000001  -0.000073   0.000000
    50  H    0.000000   0.000000   0.000000   0.000000   0.000008   0.000000
    51  H    0.000000   0.000000   0.000000   0.000000  -0.000001   0.000000
    52  H    0.000000   0.000000  -0.000002   0.000000   0.000003   0.000000
    53  H    0.000000   0.000000   0.000000   0.000000   0.000002   0.000000
             13         14         15         16         17         18
     1  C    0.000030  -0.005960   0.000055   0.000149   0.000067   0.000002
     2  C   -0.000001   0.000026   0.000000   0.000000   0.000000   0.000000
     3  C   -0.000081  -0.005949  -0.000198   0.000010   0.000004   0.000000
     4  C   -0.000162  -0.000120   0.000012   0.000008  -0.000036   0.000000
     5  C    0.000004   0.000006   0.000000   0.000000   0.000001   0.000000
     6  C    0.000011  -0.000210   0.000000   0.000000   0.000000   0.000000
     7  H   -0.000024   0.000003   0.000000   0.000001  -0.000013   0.000000
     8  H    0.000000   0.000000   0.000000   0.000000   0.000000   0.000000
     9  H    0.000000  -0.000003   0.000000   0.000000   0.000000   0.000000
    10  H    0.000000   0.000000   0.000000   0.000000   0.000000   0.000000
    11  C    0.014207   0.024729   0.001942  -0.003074   0.000431  -0.000143
    12  C   -0.000756  -0.004102  -0.001937   0.014453  -0.000052   0.000006
    13  C   -0.003790   0.003104  -0.000996  -0.009570   0.000223   0.000024
    14  C    0.003104   0.083905   0.000607  -0.001282  -0.000101   0.000110
    15  C   -0.000996   0.000607  -0.028169   0.001028   0.000023   0.000754
    16  C   -0.009570  -0.001282   0.001028   0.022246   0.000098  -0.000066
    17  H    0.000223  -0.000101   0.000023   0.000098  -0.001073   0.000000
    18  H    0.000024   0.000110   0.000754  -0.000066   0.000000   0.000111
    19  H   -0.000168   0.000000  -0.000018   0.000040   0.000024   0.000000
    20  H    0.000019   0.000051   0.000126   0.000106   0.000001   0.000025
    21  C   -0.000186   0.002934   0.001733   0.000024   0.000001   0.000074
    22  C    0.000000  -0.000509  -0.000108  -0.000002   0.000000  -0.000004
    23  H    0.000000  -0.000412  -0.000057   0.000001   0.000000   0.000024
    24  H    0.000001   0.000098   0.000019   0.000000   0.000000  -0.000002
    25  H    0.000000   0.000161   0.000009   0.000000   0.000000  -0.000001
    26  C   -0.000005  -0.001153  -0.000102   0.000002   0.000000  -0.000008
    27  H    0.000000   0.000143   0.000008   0.000000   0.000000  -0.000015
    28  H    0.000000  -0.000049   0.000000   0.000000   0.000000   0.000001
    29  C   -0.000006   0.000489   0.000037  -0.000006   0.000000   0.000006
    30  C    0.000000   0.000001   0.000000   0.000000   0.000000   0.000000
    31  H    0.000000   0.000000   0.000000   0.000000   0.000000   0.000000
    32  H    0.000000  -0.000006   0.000000   0.000000   0.000000   0.000000
    33  H    0.000000   0.000004   0.000000   0.000000   0.000000   0.000000
    34  C   -0.000150  -0.008397   0.000115   0.000232   0.000000  -0.000100
    35  C    0.000047   0.000257  -0.000002  -0.000388   0.000000   0.000015
    36  C   -0.001223  -0.006189   0.000271   0.000982   0.000000  -0.000012
    37  C    0.000003   0.000256   0.000579  -0.000003   0.000000  -0.000198
    38  C    0.000011   0.000403   0.000022  -0.000096   0.000000   0.000033
    39  C   -0.000233  -0.000535   0.000040   0.001254   0.000000  -0.000007
    40  H    0.000000   0.000001   0.000004   0.000000   0.000000  -0.000002
    41  H    0.000000   0.000000  -0.000001   0.000000   0.000000   0.000000
    42  H   -0.000021  -0.000004   0.000002   0.000012   0.000000   0.000000
    43  H    0.000000   0.000000   0.000001   0.000000   0.000000   0.000000
    44  C    0.000829   0.003237  -0.000073  -0.000446   0.000008   0.000003
    45  C   -0.000016  -0.000041   0.000000   0.000001   0.000000   0.000000
    46  C    0.000194   0.003938   0.000007  -0.000033   0.000000  -0.000001
    47  C    0.000458   0.000195  -0.000002  -0.000066   0.000001   0.000000
    48  C   -0.000066  -0.000033   0.000000   0.000006  -0.000003   0.000000
    49  C   -0.000002   0.000007   0.000001   0.000000   0.000000   0.000000
    50  H    0.000001   0.000000   0.000000  -0.000003  -0.000001   0.000000
    51  H    0.000000   0.000000   0.000000   0.000000   0.000000   0.000000
    52  H    0.000000  -0.000001   0.000000   0.000000   0.000000   0.000000
    53  H    0.000000   0.000000   0.000000   0.000000   0.000000   0.000000
             19         20         21         22         23         24
     1  C    0.000000   0.000000  -0.000138   0.000185   0.000012  -0.000088
     2  C    0.000000   0.000000  -0.000019  -0.000006   0.000000   0.000001
     3  C    0.000000   0.000000  -0.002902   0.000342   0.000191   0.000120
     4  C    0.000000   0.000000  -0.000346  -0.000002   0.000000   0.000003
     5  C    0.000000   0.000000   0.000069  -0.000003   0.000000   0.000000
     6  C    0.000000   0.000000   0.001703  -0.000037   0.000001   0.000016
     7  H    0.000000   0.000000   0.000001   0.000000   0.000000   0.000000
     8  H    0.000000   0.000000   0.000000   0.000000   0.000000   0.000000
     9  H    0.000000   0.000000   0.000116  -0.000008   0.000001  -0.000002
    10  H    0.000000   0.000000   0.000001   0.000000   0.000000   0.000000
    11  C    0.000013  -0.000012   0.001438   0.000198  -0.000026  -0.000091
    12  C    0.000173  -0.000539  -0.000080   0.000005   0.000009   0.000000
    13  C   -0.000168   0.000019  -0.000186   0.000000   0.000000   0.000001
    14  C    0.000000   0.000051   0.002934  -0.000509  -0.000412   0.000098
    15  C   -0.000018   0.000126   0.001733  -0.000108  -0.000057   0.000019
    16  C    0.000040   0.000106   0.000024  -0.000002   0.000001   0.000000
    17  H    0.000024   0.000001   0.000001   0.000000   0.000000   0.000000
    18  H    0.000000   0.000025   0.000074  -0.000004   0.000024  -0.000002
    19  H   -0.001421  -0.000071   0.000000   0.000000   0.000000   0.000000
    20  H   -0.000071  -0.002666   0.000001   0.000000   0.000000   0.000000
    21  C    0.000000   0.000001  -0.023781   0.002632  -0.000134  -0.000223
    22  C    0.000000   0.000000   0.002632  -0.001323   0.000147   0.000362
    23  H    0.000000   0.000000  -0.000134   0.000147   0.001315   0.000049
    24  H    0.000000   0.000000  -0.000223   0.000362   0.000049  -0.001119
    25  H    0.000000   0.000000   0.000335  -0.000235  -0.000272   0.000035
    26  C    0.000000   0.000000   0.001852   0.000396  -0.000009  -0.000039
    27  H    0.000000   0.000000   0.000026  -0.000012  -0.000016   0.000002
    28  H    0.000000   0.000000   0.000106   0.000038   0.000000   0.000001
    29  C    0.000000   0.000000   0.000685   0.000071  -0.000001  -0.000001
    30  C    0.000000   0.000000   0.000071   0.000002   0.000000   0.000000
    31  H    0.000000   0.000000  -0.000001   0.000000   0.000000   0.000000
    32  H    0.000000   0.000000  -0.000003   0.000000   0.000000   0.000000
    33  H    0.000000   0.000000  -0.000001   0.000000   0.000000   0.000000
    34  C    0.000000  -0.000015  -0.000392  -0.000017  -0.000025   0.000000
    35  C   -0.000002   0.000068   0.000001   0.000000   0.000000   0.000000
    36  C    0.000001  -0.000014  -0.000062   0.000002  -0.000002   0.000000
    37  C    0.000000   0.000003  -0.000032  -0.000002   0.000002   0.000000
    38  C    0.000000   0.000106   0.000003   0.000000   0.000001   0.000000
    39  C    0.000004  -0.000048  -0.000002   0.000000   0.000000   0.000000
    40  H    0.000000   0.000000   0.000000   0.000000   0.000000   0.000000
    41  H    0.000000   0.000000   0.000000   0.000000   0.000000   0.000000
    42  H    0.000000   0.000000   0.000000   0.000000   0.000000   0.000000
    43  H    0.000000   0.000000   0.000000   0.000000   0.000000   0.000000
    44  C   -0.000001   0.000002   0.000243   0.000004   0.000001   0.000000
    45  C    0.000000   0.000000  -0.000010   0.000000   0.000000   0.000000
    46  C    0.000000   0.000000   0.000485   0.000001   0.000004   0.000000
    47  C    0.000000   0.000000  -0.000006   0.000000   0.000000   0.000000
    48  C    0.000000   0.000000  -0.000006   0.000000   0.000000   0.000000
    49  C    0.000000   0.000000   0.000036   0.000000   0.000000   0.000000
    50  H    0.000000   0.000000   0.000000   0.000000   0.000000   0.000000
    51  H    0.000000   0.000000   0.000000   0.000000   0.000000   0.000000
    52  H    0.000000   0.000000   0.000006   0.000000   0.000000   0.000000
    53  H    0.000000   0.000000   0.000000   0.000000   0.000000   0.000000
             25         26         27         28         29         30
     1  C   -0.000019   0.000291   0.000003  -0.000002  -0.000061   0.000002
     2  C    0.000011   0.000003   0.000000  -0.000006   0.000003   0.000000
     3  C   -0.000467   0.000315  -0.000018   0.000118  -0.000389  -0.000017
     4  C    0.000000   0.000004   0.000000   0.000001  -0.000002   0.000000
     5  C    0.000000  -0.000004   0.000000   0.000000   0.000001   0.000000
     6  C   -0.000005  -0.000057   0.000004  -0.000075  -0.000032  -0.000002
     7  H    0.000000   0.000000   0.000000   0.000000   0.000000   0.000000
     8  H    0.000000   0.000000   0.000000   0.000000   0.000000   0.000000
     9  H   -0.000006  -0.000012   0.000001  -0.000011   0.000000   0.000000
    10  H    0.000000   0.000000   0.000000   0.000000   0.000000   0.000000
    11  C    0.000006  -0.000190  -0.000002   0.000004   0.000242   0.000004
    12  C    0.000000   0.000009  -0.000003   0.000000  -0.000009   0.000000
    13  C    0.000000  -0.000005   0.000000   0.000000  -0.000006   0.000000
    14  C    0.000161  -0.001153   0.000143  -0.000049   0.000489   0.000001
    15  C    0.000009  -0.000102   0.000008   0.000000   0.000037   0.000000
    16  C    0.000000   0.000002   0.000000   0.000000  -0.000006   0.000000
    17  H    0.000000   0.000000   0.000000   0.000000   0.000000   0.000000
    18  H   -0.000001  -0.000008  -0.000015   0.000001   0.000006   0.000000
    19  H    0.000000   0.000000   0.000000   0.000000   0.000000   0.000000
    20  H    0.000000   0.000000   0.000000   0.000000   0.000000   0.000000
    21  C    0.000335   0.001852   0.000026   0.000106   0.000685   0.000071
    22  C   -0.000235   0.000396  -0.000012   0.000038   0.000071   0.000002
    23  H   -0.000272  -0.000009  -0.000016   0.000000  -0.000001   0.000000
    24  H    0.000035  -0.000039   0.000002   0.000001  -0.000001   0.000000
    25  H    0.001104  -0.000029  -0.000008  -0.000012  -0.000003   0.000000
    26  C   -0.000029  -0.002081   0.000105   0.000102   0.001850   0.000397
    27  H   -0.000008   0.000105  -0.000740   0.000173   0.000105   0.000038
    28  H   -0.000012   0.000102   0.000173  -0.000738   0.000026  -0.000012
    29  C   -0.000003   0.001850   0.000105   0.000026  -0.023731   0.002629
    30  C    0.000000   0.000397   0.000038  -0.000012   0.002629  -0.001325
    31  H    0.000000  -0.000038   0.000001   0.000002  -0.000223   0.000360
    32  H    0.000000  -0.000029  -0.000012  -0.000008   0.000334  -0.000235
    33  H    0.000000  -0.000009   0.000000  -0.000016  -0.000133   0.000148
    34  C    0.000004   0.000307   0.000119  -0.000017  -0.002919   0.000344
    35  C    0.000000  -0.000004   0.000000   0.000000   0.000069  -0.000003
    36  C    0.000000   0.000295  -0.000002   0.000003  -0.000144   0.000182
    37  C    0.000000  -0.000056  -0.000076   0.000004   0.001702  -0.000037
    38  C    0.000000   0.000003  -0.000006   0.000000  -0.000019  -0.000006
    39  C    0.000000   0.000004   0.000001   0.000000  -0.000346  -0.000002
    40  H    0.000000  -0.000011  -0.000011   0.000001   0.000116  -0.000008
    41  H    0.000000   0.000000   0.000000   0.000000   0.000001   0.000000
    42  H    0.000000   0.000000   0.000000   0.000000   0.000001   0.000000
    43  H    0.000000   0.000000   0.000000   0.000000   0.000000   0.000000
    44  C    0.000000  -0.000191   0.000004  -0.000002   0.001443   0.000197
    45  C    0.000000   0.000009   0.000000  -0.000003  -0.000081   0.000005
    46  C   -0.000006  -0.001152  -0.000049   0.000143   0.002938  -0.000504
    47  C    0.000000  -0.000005   0.000000   0.000000  -0.000186   0.000000
    48  C    0.000000   0.000002   0.000000   0.000000   0.000024  -0.000002
    49  C    0.000000  -0.000102   0.000000   0.000008   0.001730  -0.000107
    50  H    0.000000   0.000000   0.000000   0.000000   0.000001   0.000000
    51  H    0.000000   0.000000   0.000000   0.000000   0.000000   0.000000
    52  H    0.000000  -0.000008   0.000001  -0.000015   0.000074  -0.000004
    53  H    0.000000   0.000000   0.000000   0.000000   0.000001   0.000000
             31         32         33         34         35         36
     1  C    0.000000   0.000000  -0.000002   0.000293  -0.000001   0.000778
     2  C    0.000000   0.000000   0.000001  -0.000001   0.000000  -0.000001
     3  C    0.000000   0.000004  -0.000025   0.000414   0.000000   0.000295
     4  C    0.000000   0.000000   0.000000   0.000004   0.000000   0.000017
     5  C    0.000000   0.000000   0.000000   0.000000   0.000000  -0.000001
     6  C    0.000000   0.000000   0.000002   0.000000   0.000000   0.000000
     7  H    0.000000   0.000000   0.000000   0.000000   0.000000   0.000000
     8  H    0.000000   0.000000   0.000000   0.000000   0.000000   0.000000
     9  H    0.000000   0.000000   0.000000   0.000000   0.000000   0.000000
    10  H    0.000000   0.000000   0.000000   0.000000   0.000000   0.000000
    11  C    0.000000   0.000000   0.000001  -0.001373   0.000034  -0.002637
    12  C    0.000000   0.000000   0.000000   0.001269  -0.002572   0.002287
    13  C    0.000000   0.000000   0.000000  -0.000150   0.000047  -0.001223
    14  C    0.000000  -0.000006   0.000004  -0.008397   0.000257  -0.006189
    15  C    0.000000   0.000000   0.000000   0.000115  -0.000002   0.000271
    16  C    0.000000   0.000000   0.000000   0.000232  -0.000388   0.000982
    17  H    0.000000   0.000000   0.000000   0.000000   0.000000   0.000000
    18  H    0.000000   0.000000   0.000000  -0.000100   0.000015  -0.000012
    19  H    0.000000   0.000000   0.000000   0.000000  -0.000002   0.000001
    20  H    0.000000   0.000000   0.000000  -0.000015   0.000068  -0.000014
    21  C   -0.000001  -0.000003  -0.000001  -0.000392   0.000001  -0.000062
    22  C    0.000000   0.000000   0.000000  -0.000017   0.000000   0.000002
    23  H    0.000000   0.000000   0.000000  -0.000025   0.000000  -0.000002
    24  H    0.000000   0.000000   0.000000   0.000000   0.000000   0.000000
    25  H    0.000000   0.000000   0.000000   0.000004   0.000000   0.000000
    26  C   -0.000038  -0.000029  -0.000009   0.000307  -0.000004   0.000295
    27  H    0.000001  -0.000012   0.000000   0.000119   0.000000  -0.000002
    28  H    0.000002  -0.000008  -0.000016  -0.000017   0.000000   0.000003
    29  C   -0.000223   0.000334  -0.000133  -0.002919   0.000069  -0.000144
    30  C    0.000360  -0.000235   0.000148   0.000344  -0.000003   0.000182
    31  H   -0.001117   0.000035   0.000049   0.000120   0.000000  -0.000087
    32  H    0.000035   0.001100  -0.000271  -0.000465   0.000000  -0.000019
    33  H    0.000049  -0.000271   0.001307   0.000191   0.000000   0.000012
    34  C    0.000120  -0.000465   0.000191   0.124587  -0.001765   0.029901
    35  C    0.000000   0.000000   0.000000  -0.001765   0.013630  -0.003077
    36  C   -0.000087  -0.000019   0.000012   0.029901  -0.003077   0.040438
    37  C    0.000016  -0.000004   0.000001   0.000085   0.001893   0.002845
    38  C    0.000001   0.000011   0.000000  -0.008519   0.025315  -0.001455
    39  C    0.000003   0.000000   0.000000   0.005314  -0.015155   0.020781
    40  H   -0.000002  -0.000006   0.000001   0.000105  -0.000114  -0.000168
    41  H    0.000000   0.000000   0.000000   0.000073   0.000422  -0.000019
    42  H    0.000000   0.000000   0.000000  -0.000115   0.000172   0.000673
    43  H    0.000000   0.000000   0.000000   0.000008   0.000070  -0.000023
    44  C   -0.000090   0.000006  -0.000025  -0.007487   0.000160  -0.029248
    45  C    0.000000   0.000000   0.000009   0.000021   0.000000   0.000050
    46  C    0.000097   0.000160  -0.000412  -0.005941   0.000006  -0.005951
    47  C    0.000001   0.000000   0.000000  -0.000082   0.000004   0.000037
    48  C    0.000000   0.000000   0.000001   0.000010   0.000000   0.000149
    49  C    0.000019   0.000009  -0.000057  -0.000197   0.000000   0.000054
    50  H    0.000000   0.000000   0.000000   0.000004   0.000001   0.000067
    51  H    0.000000   0.000000   0.000000   0.000000   0.000000   0.000000
    52  H   -0.000002  -0.000001   0.000024   0.000000   0.000000   0.000002
    53  H    0.000000   0.000000   0.000000   0.000000   0.000000   0.000000
             37         38         39         40         41         42
     1  C    0.000000  -0.000001   0.000018   0.000000   0.000000   0.000000
     2  C    0.000000   0.000000   0.000000   0.000000   0.000000   0.000000
     3  C    0.000000  -0.000001   0.000004   0.000000   0.000000   0.000000
     4  C    0.000000   0.000000   0.000000   0.000000   0.000000   0.000000
     5  C    0.000000   0.000000   0.000000   0.000000   0.000000   0.000000
     6  C    0.000000   0.000000   0.000000   0.000000   0.000000   0.000000
     7  H    0.000000   0.000000   0.000000   0.000000   0.000000   0.000000
     8  H    0.000000   0.000000   0.000000   0.000000   0.000000   0.000000
     9  H    0.000000   0.000000   0.000000   0.000000   0.000000   0.000000
    10  H    0.000000   0.000000   0.000000   0.000000   0.000000   0.000000
    11  C   -0.000010   0.000019  -0.000312   0.000000   0.000000  -0.000001
    12  C   -0.000032  -0.001695   0.001888   0.000000   0.000002   0.000014
    13  C    0.000003   0.000011  -0.000233   0.000000   0.000000  -0.000021
    14  C    0.000256   0.000403  -0.000535   0.000001   0.000000  -0.000004
    15  C    0.000579   0.000022   0.000040   0.000004  -0.000001   0.000002
    16  C   -0.000003  -0.000096   0.001254   0.000000   0.000000   0.000012
    17  H    0.000000   0.000000   0.000000   0.000000   0.000000   0.000000
    18  H   -0.000198   0.000033  -0.000007  -0.000002   0.000000   0.000000
    19  H    0.000000   0.000000   0.000004   0.000000   0.000000   0.000000
    20  H    0.000003   0.000106  -0.000048   0.000000   0.000000   0.000000
    21  C   -0.000032   0.000003  -0.000002   0.000000   0.000000   0.000000
    22  C   -0.000002   0.000000   0.000000   0.000000   0.000000   0.000000
    23  H    0.000002   0.000001   0.000000   0.000000   0.000000   0.000000
    24  H    0.000000   0.000000   0.000000   0.000000   0.000000   0.000000
    25  H    0.000000   0.000000   0.000000   0.000000   0.000000   0.000000
    26  C   -0.000056   0.000003   0.000004  -0.000011   0.000000   0.000000
    27  H   -0.000076  -0.000006   0.000001  -0.000011   0.000000   0.000000
    28  H    0.000004   0.000000   0.000000   0.000001   0.000000   0.000000
    29  C    0.001702  -0.000019  -0.000346   0.000116   0.000001   0.000001
    30  C   -0.000037  -0.000006  -0.000002  -0.000008   0.000000   0.000000
    31  H    0.000016   0.000001   0.000003  -0.000002   0.000000   0.000000
    32  H   -0.000004   0.000011   0.000000  -0.000006   0.000000   0.000000
    33  H    0.000001   0.000000   0.000000   0.000001   0.000000   0.000000
    34  C    0.000085  -0.008519   0.005314   0.000105   0.000073  -0.000115
    35  C    0.001893   0.025315  -0.015155  -0.000114   0.000422   0.000172
    36  C    0.002845  -0.001455   0.020781  -0.000168  -0.000019   0.000673
    37  C   -0.050198  -0.003710  -0.001731   0.001029  -0.000012   0.000034
    38  C   -0.003710   0.137279  -0.002977  -0.000002  -0.001159  -0.000068
    39  C   -0.001731  -0.002977   0.017500   0.000030   0.000034   0.000059
    40  H    0.001029  -0.000002   0.000030   0.000201  -0.000011   0.000000
    41  H   -0.000012  -0.001159   0.000034  -0.000011  -0.005417   0.000001
    42  H    0.000034  -0.000068   0.000059   0.000000   0.000001  -0.002161
    43  H   -0.000050   0.000264  -0.000261   0.000000  -0.000121   0.000048
    44  C    0.000057   0.000096  -0.000823   0.000004  -0.000001   0.000067
    45  C    0.000000   0.000000   0.000000   0.000000   0.000000   0.000000
    46  C   -0.000209   0.000026  -0.000120  -0.000003   0.000000   0.000003
    47  C    0.000011  -0.000001  -0.000161   0.000000   0.000000  -0.000024
    48  C    0.000000   0.000000   0.000008   0.000000   0.000000   0.000001
    49  C    0.000000   0.000000   0.000012   0.000000   0.000000   0.000000
    50  H    0.000000   0.000000  -0.000036   0.000000   0.000000  -0.000013
    51  H    0.000000   0.000000   0.000000   0.000000   0.000000   0.000000
    52  H    0.000000   0.000000   0.000000   0.000000   0.000000   0.000000
    53  H    0.000000   0.000000   0.000000   0.000000   0.000000   0.000000
             43         44         45         46         47         48
     1  C    0.000000  -0.002640   0.002295  -0.006171  -0.001224   0.000986
     2  C    0.000000   0.000019  -0.001708   0.000404   0.000011  -0.000097
     3  C    0.000000  -0.001382   0.001278  -0.008414  -0.000152   0.000234
     4  C    0.000000  -0.000311   0.001884  -0.000531  -0.000233   0.001254
     5  C    0.000000   0.000034  -0.002582   0.000257   0.000047  -0.000390
     6  C    0.000000  -0.000011  -0.000031   0.000256   0.000003  -0.000003
     7  H    0.000000  -0.000001   0.000014  -0.000004  -0.000020   0.000012
     8  H    0.000000   0.000000   0.000001   0.000000   0.000000   0.000000
     9  H    0.000000   0.000000   0.000000   0.000001   0.000000   0.000000
    10  H    0.000000   0.000000   0.000002   0.000000   0.000000   0.000000
    11  C    0.000000   0.005755  -0.000245   0.003221   0.000831  -0.000448
    12  C    0.000000  -0.000245   0.000000  -0.000040  -0.000016   0.000001
    13  C    0.000000   0.000829  -0.000016   0.000194   0.000458  -0.000066
    14  C    0.000000   0.003237  -0.000041   0.003938   0.000195  -0.000033
    15  C    0.000001  -0.000073   0.000000   0.000007  -0.000002   0.000000
    16  C    0.000000  -0.000446   0.000001  -0.000033  -0.000066   0.000006
    17  H    0.000000   0.000008   0.000000   0.000000   0.000001  -0.000003
    18  H    0.000000   0.000003   0.000000  -0.000001   0.000000   0.000000
    19  H    0.000000  -0.000001   0.000000   0.000000   0.000000   0.000000
    20  H    0.000000   0.000002   0.000000   0.000000   0.000000   0.000000
    21  C    0.000000   0.000243  -0.000010   0.000485  -0.000006  -0.000006
    22  C    0.000000   0.000004   0.000000   0.000001   0.000000   0.000000
    23  H    0.000000   0.000001   0.000000   0.000004   0.000000   0.000000
    24  H    0.000000   0.000000   0.000000   0.000000   0.000000   0.000000
    25  H    0.000000   0.000000   0.000000  -0.000006   0.000000   0.000000
    26  C    0.000000  -0.000191   0.000009  -0.001152  -0.000005   0.000002
    27  H    0.000000   0.000004   0.000000  -0.000049   0.000000   0.000000
    28  H    0.000000  -0.000002  -0.000003   0.000143   0.000000   0.000000
    29  C    0.000000   0.001443  -0.000081   0.002938  -0.000186   0.000024
    30  C    0.000000   0.000197   0.000005  -0.000504   0.000000  -0.000002
    31  H    0.000000  -0.000090   0.000000   0.000097   0.000001   0.000000
    32  H    0.000000   0.000006   0.000000   0.000160   0.000000   0.000000
    33  H    0.000000  -0.000025   0.000009  -0.000412   0.000000   0.000001
    34  C    0.000008  -0.007487   0.000021  -0.005941  -0.000082   0.000010
    35  C    0.000070   0.000160   0.000000   0.000006   0.000004   0.000000
    36  C   -0.000023  -0.029248   0.000050  -0.005951   0.000037   0.000149
    37  C   -0.000050   0.000057   0.000000  -0.000209   0.000011   0.000000
    38  C    0.000264   0.000096   0.000000   0.000026  -0.000001   0.000000
    39  C   -0.000261  -0.000823   0.000000  -0.000120  -0.000161   0.000008
    40  H    0.000000   0.000004   0.000000  -0.000003   0.000000   0.000000
    41  H   -0.000121  -0.000001   0.000000   0.000000   0.000000   0.000000
    42  H    0.000048   0.000067   0.000000   0.000003  -0.000024   0.000001
    43  H   -0.001668   0.000000   0.000000   0.000000   0.000000   0.000000
    44  C    0.000000   0.052976  -0.001088   0.024734   0.014197  -0.003078
    45  C    0.000000  -0.001088   0.049504  -0.004099  -0.000752   0.014453
    46  C    0.000000   0.024734  -0.004099   0.083747   0.003108  -0.001282
    47  C    0.000000   0.014197  -0.000752   0.003108  -0.003883  -0.009563
    48  C    0.000000  -0.003078   0.014453  -0.001282  -0.009563   0.022370
    49  C    0.000000   0.001942  -0.001943   0.000631  -0.000997   0.001029
    50  H    0.000000   0.000431  -0.000052  -0.000101   0.000225   0.000097
    51  H    0.000000   0.000013   0.000174   0.000000  -0.000168   0.000039
    52  H    0.000000  -0.000142   0.000006   0.000108   0.000024  -0.000066
    53  H    0.000000  -0.000012  -0.000541   0.000051   0.000019   0.000106
             49         50         51         52         53
     1  C    0.000262   0.000000   0.000001  -0.000013  -0.000014
     2  C    0.000024   0.000000   0.000000   0.000033   0.000107
     3  C    0.000108   0.000000   0.000000  -0.000100  -0.000015
     4  C    0.000039   0.000000   0.000004  -0.000007  -0.000048
     5  C   -0.000002   0.000000  -0.000002   0.000015   0.000069
     6  C    0.000585   0.000000   0.000000  -0.000198   0.000003
     7  H    0.000002   0.000000   0.000000   0.000000   0.000000
     8  H    0.000001   0.000000   0.000000   0.000000   0.000000
     9  H    0.000004   0.000000   0.000000  -0.000002   0.000000
    10  H   -0.000001   0.000000   0.000000   0.000000   0.000000
    11  C   -0.000073   0.000008  -0.000001   0.000003   0.000002
    12  C    0.000000   0.000000   0.000000   0.000000   0.000000
    13  C   -0.000002   0.000001   0.000000   0.000000   0.000000
    14  C    0.000007   0.000000   0.000000  -0.000001   0.000000
    15  C    0.000001   0.000000   0.000000   0.000000   0.000000
    16  C    0.000000  -0.000003   0.000000   0.000000   0.000000
    17  H    0.000000  -0.000001   0.000000   0.000000   0.000000
    18  H    0.000000   0.000000   0.000000   0.000000   0.000000
    19  H    0.000000   0.000000   0.000000   0.000000   0.000000
    20  H    0.000000   0.000000   0.000000   0.000000   0.000000
    21  C    0.000036   0.000000   0.000000   0.000006   0.000000
    22  C    0.000000   0.000000   0.000000   0.000000   0.000000
    23  H    0.000000   0.000000   0.000000   0.000000   0.000000
    24  H    0.000000   0.000000   0.000000   0.000000   0.000000
    25  H    0.000000   0.000000   0.000000   0.000000   0.000000
    26  C   -0.000102   0.000000   0.000000  -0.000008   0.000000
    27  H    0.000000   0.000000   0.000000   0.000001   0.000000
    28  H    0.000008   0.000000   0.000000  -0.000015   0.000000
    29  C    0.001730   0.000001   0.000000   0.000074   0.000001
    30  C   -0.000107   0.000000   0.000000  -0.000004   0.000000
    31  H    0.000019   0.000000   0.000000  -0.000002   0.000000
    32  H    0.000009   0.000000   0.000000  -0.000001   0.000000
    33  H   -0.000057   0.000000   0.000000   0.000024   0.000000
    34  C   -0.000197   0.000004   0.000000   0.000000   0.000000
    35  C    0.000000   0.000001   0.000000   0.000000   0.000000
    36  C    0.000054   0.000067   0.000000   0.000002   0.000000
    37  C    0.000000   0.000000   0.000000   0.000000   0.000000
    38  C    0.000000   0.000000   0.000000   0.000000   0.000000
    39  C    0.000012  -0.000036   0.000000   0.000000   0.000000
    40  H    0.000000   0.000000   0.000000   0.000000   0.000000
    41  H    0.000000   0.000000   0.000000   0.000000   0.000000
    42  H    0.000000  -0.000013   0.000000   0.000000   0.000000
    43  H    0.000000   0.000000   0.000000   0.000000   0.000000
    44  C    0.001942   0.000431   0.000013  -0.000142  -0.000012
    45  C   -0.001943  -0.000052   0.000174   0.000006  -0.000541
    46  C    0.000631  -0.000101   0.000000   0.000108   0.000051
    47  C   -0.000997   0.000225  -0.000168   0.000024   0.000019
    48  C    0.001029   0.000097   0.000039  -0.000066   0.000106
    49  C   -0.028092   0.000023  -0.000018   0.000754   0.000129
    50  H    0.000023  -0.001070   0.000024   0.000000   0.000001
    51  H   -0.000018   0.000024  -0.001425   0.000000  -0.000071
    52  H    0.000754   0.000000   0.000000   0.000106   0.000026
    53  H    0.000129   0.000001  -0.000071   0.000026  -0.002662
 Mulliken atomic spin densities:
              1
     1  C    0.049925
     2  C    0.143814
     3  C    0.125618
     4  C    0.024004
     5  C    0.019312
     6  C   -0.047806
     7  H   -0.001311
     8  H   -0.001743
     9  H    0.001151
    10  H   -0.006204
    11  C    0.059054
    12  C    0.056684
    13  C    0.001711
    14  C    0.089608
    15  C   -0.024269
    16  C    0.025615
    17  H   -0.000399
    18  H    0.000631
    19  H   -0.001426
    20  H   -0.002858
    21  C   -0.013750
    22  C    0.002116
    23  H    0.000801
    24  H   -0.000858
    25  H    0.000603
    26  C    0.000653
    27  H   -0.000236
    28  H   -0.000236
    29  C   -0.013715
    30  C    0.002117
    31  H   -0.000856
    32  H    0.000600
    33  H    0.000796
    34  C    0.125545
    35  C    0.019079
    36  C    0.049786
    37  C   -0.047842
    38  C    0.143878
    39  C    0.024204
    40  H    0.001153
    41  H   -0.006206
    42  H   -0.001321
    43  H   -0.001732
    44  C    0.059162
    45  C    0.056512
    46  C    0.089497
    47  C    0.001634
    48  C    0.025742
    49  C   -0.024183
    50  H   -0.000395
    51  H   -0.001430
    52  H    0.000624
    53  H   -0.002853
 Sum of Mulliken atomic spin densities =   1.00000
 Electronic spatial extent (au):  <R**2>=           8710.8803
 Charge=              1.0000 electrons
 Dipole moment (field-independent basis, Debye):
    X=              6.3256    Y=             -0.6245    Z=             -0.2789  Tot=              6.3625
 Quadrupole moment (field-independent basis, Debye-Ang):
   XX=           -149.6427   YY=           -130.5116   ZZ=           -107.2045
   XY=             -4.9080   XZ=            -10.4886   YZ=              2.8562
 Traceless Quadrupole moment (field-independent basis, Debye-Ang):
   XX=            -20.5232   YY=             -1.3920   ZZ=             21.9151
   XY=             -4.9080   XZ=            -10.4886   YZ=              2.8562
 Octapole moment (field-independent basis, Debye-Ang**2):
  XXX=           -615.6982  YYY=            102.6465  ZZZ=              7.4663  XYY=           -172.5947
  XXY=             17.1078  XXZ=            -20.1501  XZZ=           -143.5722  YZZ=             36.6710
  YYZ=              6.9582  XYZ=              9.6273
 Hexadecapole moment (field-independent basis, Debye-Ang**3):
 XXXX=          -4805.6921 YYYY=          -2214.7077 ZZZZ=          -3634.4013 XXXY=             94.2007
 XXXZ=            382.5913 YYYX=            162.2252 YYYZ=           -108.5739 ZZZX=            176.7880
 ZZZY=            -93.1980 XXYY=          -1061.3356 XXZZ=          -1381.7778 YYZZ=          -1009.1803
 XXYZ=            -23.9599 YYXZ=            117.8373 ZZXY=             20.0230
 N-N= 2.834523955758D+03 E-N=-1.233297293313D+04  KE= 1.662313964729D+03
                          Isotropic Fermi Contact Couplings
        Atom                 a.u.       MegaHertz       Gauss      10(-4) cm-1
     1  C(13)             -0.00115      -1.29332      -0.46149      -0.43141
     2  C(13)              0.02071      23.28391       8.30828       7.76668
     3  C(13)              0.01500      16.85939       6.01585       5.62369
     4  C(13)             -0.00127      -1.42549      -0.50865      -0.47549
     5  C(13)             -0.00305      -3.42566      -1.22236      -1.14268
     6  C(13)             -0.01473     -16.55570      -5.90749      -5.52239
     7  H(1)              -0.00051      -2.27694      -0.81247      -0.75950
     8  H(1)              -0.00049      -2.17882      -0.77746      -0.72678
     9  H(1)               0.00042       1.86935       0.66703       0.62355
    10  H(1)              -0.00211      -9.43699      -3.36735      -3.14784
    11  C(13)              0.00035       0.39532       0.14106       0.13186
    12  C(13)              0.00722       8.12142       2.89792       2.70901
    13  C(13)             -0.00315      -3.53589      -1.26169      -1.17945
    14  C(13)              0.00929      10.44562       3.72726       3.48429
    15  C(13)             -0.00876      -9.84246      -3.51203      -3.28309
    16  C(13)              0.00088       0.99334       0.35445       0.33134
    17  H(1)              -0.00022      -0.96416      -0.34404      -0.32161
    18  H(1)               0.00020       0.88847       0.31703       0.29636
[...]
      C   45   -0.07545      0.99959     2.06809    0.00777     3.07545
      C   46    0.05631      0.99955     1.93572    0.00842     2.94369
      C   47   -0.11176      0.99955     2.10520    0.00702     3.11176
      C   48   -0.10016      0.99959     2.09317    0.00740     3.10016
      C   49   -0.13171      0.99953     2.12429    0.00789     3.13171
      H   50    0.13511      0.00000     0.36448    0.00041     0.36489
      H   51    0.13651      0.00000     0.36317    0.00032     0.36349
      H   52    0.13634      0.00000     0.36323    0.00043     0.36366
      H   53    0.13562      0.00000     0.36403    0.00036     0.36438
 =======================================================================
   * Total *    1.00000     28.98751    68.79028    0.22221    98.00000

                                 Natural Population      
 --------------------------------------------------------
   Core                      28.98751 ( 99.9569% of  29)
   Valence                   68.79028 ( 99.6961% of  69)
   Natural Minimal Basis     97.77779 ( 99.7733% of  98)
   Natural Rydberg Basis      0.22221 (  0.2267% of  98)
 --------------------------------------------------------

    Atom  No          Natural Electron Configuration
 ----------------------------------------------------------------------------
      C    1      [core]2S( 0.42)2p( 1.55)3p( 0.01)
      C    2      [core]2S( 0.48)2p( 1.53)3p( 0.01)
      C    3      [core]2S( 0.42)2p( 1.48)3p( 0.01)
      C    4      [core]2S( 0.47)2p( 1.62)3p( 0.01)
      C    5      [core]2S( 0.48)2p( 1.62)3p( 0.01)
      C    6      [core]2S( 0.47)2p( 1.68)3p( 0.01)
      H    7            1S( 0.36)
      H    8            1S( 0.36)
      H    9            1S( 0.36)
      H   10            1S( 0.36)
      C   11      [core]2S( 0.42)2p( 1.55)3p( 0.01)
      C   12      [core]2S( 0.48)2p( 1.59)3p( 0.01)
      C   13      [core]2S( 0.47)2p( 1.64)3p( 0.01)
      C   14      [core]2S( 0.42)2p( 1.51)3p( 0.01)
      C   15      [core]2S( 0.47)2p( 1.66)3p( 0.01)
      C   16      [core]2S( 0.48)2p( 1.62)3p( 0.01)
      H   17            1S( 0.36)
      H   18            1S( 0.36)
      H   19            1S( 0.36)
      H   20            1S( 0.36)
      C   21      [core]2S( 0.44)2p( 1.62)
      C   22      [core]2S( 0.54)2p( 1.79)
      H   23            1S( 0.37)
      H   24            1S( 0.37)
      H   25            1S( 0.37)
      C   26      [core]2S( 0.49)2p( 1.72)3p( 0.01)
      H   27            1S( 0.37)
      H   28            1S( 0.37)
      C   29      [core]2S( 0.44)2p( 1.62)
      C   30      [core]2S( 0.54)2p( 1.79)
      H   31            1S( 0.37)
      H   32            1S( 0.37)
      H   33            1S( 0.37)
      C   34      [core]2S( 0.42)2p( 1.48)3p( 0.01)
      C   35      [core]2S( 0.48)2p( 1.62)3p( 0.01)
      C   36      [core]2S( 0.42)2p( 1.55)3p( 0.01)
      C   37      [core]2S( 0.47)2p( 1.68)3p( 0.01)
      C   38      [core]2S( 0.48)2p( 1.53)3p( 0.01)
      C   39      [core]2S( 0.47)2p( 1.62)3p( 0.01)
      H   40            1S( 0.36)
      H   41            1S( 0.36)
      H   42            1S( 0.36)
      H   43            1S( 0.36)
      C   44      [core]2S( 0.42)2p( 1.55)3p( 0.01)
      C   45      [core]2S( 0.48)2p( 1.59)3p( 0.01)
      C   46      [core]2S( 0.42)2p( 1.51)3p( 0.01)
      C   47      [core]2S( 0.47)2p( 1.64)3p( 0.01)
      C   48      [core]2S( 0.48)2p( 1.62)3p( 0.01)
      C   49      [core]2S( 0.47)2p( 1.66)3p( 0.01)
      H   50            1S( 0.36)
      H   51            1S( 0.36)
      H   52            1S( 0.36)
      H   53            1S( 0.36)


 NBO analysis skipped by request.
 Leave Link  607 at Wed Dec 26 22:31:11 2012, MaxMem= 1073741824 cpu:      17.9
 (Enter /group/hpc-share/gaussian/2009B/g09/l801.exe)
 Range of M.O.s used for correlation:     1   483
 NBasis=   483 NAE=    99 NBE=    98 NFC=     0 NFV=     0
 NROrb=    483 NOA=    99 NOB=    98 NVA=   384 NVB=   385
 Leave Link  801 at Wed Dec 26 22:31:12 2012, MaxMem= 1073741824 cpu:       0.2
 (Enter /group/hpc-share/gaussian/2009B/g09/l914.exe)
 UHF ground state
 Doing stability rather than CIS.
 MDV=  1073741824 DFT=T DoStab=T Mixed=T DoRPA=F DoScal=F NonHer=F
 Would need an additional 12800200000 words for in-memory AO integral storage.
 Making orbital integer symmetry assigments:
    12 initial guesses have been made.
 Convergence on wavefunction:    0.001000000000000
 Davidson Disk Diagonalization:  ConvIn= 1.00D-03 SkipCon=T Conv= 1.00D-03.
 Max sub-space:   200 roots to seek:    12 dimension of matrix:  75746
 Iteration     1 Dimension    12 NMult    12
 CISAX:  IP=  1 NPass=   1 NMax=    12.
 CISAX will form    12 AO SS matrices at one time.
 NMat=    12 NSing=    12.
 FoFCou: FMM=T IPFlag=           0 FMFlag=      100000 FMFlg1=        2001
         NFxFlg=           0 DoJE=F BraDBF=F KetDBF=F FulRan=T
         Omega=  0.000000  0.000000  1.000000  0.000000  0.000000 ICntrl=       0 IOpCl=  1
         NMat0=   12 NMatS0=   12 NMatT0=    0 NMatD0=   12 NMtDS0=    0 NMtDT0=    0
         I1Cent=           0 NGrid=           0.
 Symmetry not used in FoFCou.
 FMM levels:  10  Number of levels for PrismC:   9
 Excitation Energies [eV] at current iteration:
 Root      1 :     0.663271139026041
 Root      2 :     1.048988759203861
 Root      3 :     1.543842474766127
 Root      4 :     2.077485794090757
 Root      5 :     2.244350817581084
 Root      6 :     2.846478382226957
 Root      7 :     3.249613579572750
 Root      8 :     3.443064385970125
 Root      9 :     3.606822968356632
 Root     10 :     3.936246418860337
 Root     11 :     4.015659830453423
 Root     12 :     4.242619352219237
 Iteration     2 Dimension    24 NMult    24
 CISAX:  IP=  1 NPass=   1 NMax=    12.
 CISAX will form    12 AO SS matrices at one time.
 NMat=    12 NSing=    12.
 Root      1 not converged, maximum delta is    0.190492338171973
 Excitation Energies [eV] at current iteration:
 Root      1 :    -0.414236959086692   Change is   -1.077508098112733
 Root      2 :     0.578462164871630   Change is   -0.470526594332231
 Root      3 :     1.221317158478689   Change is   -0.322525316287438
 Iteration     3 Dimension    27 NMult    27
 CISAX:  IP=  1 NPass=   1 NMax=     3.
 CISAX will form     3 AO SS matrices at one time.
 NMat=     3 NSing=     3.
 Root      1 not converged, maximum delta is    0.026842227629106
 Excitation Energies [eV] at current iteration:
 Root      1 :    -0.561279358921681   Change is   -0.147042399834989
 Root      2 :     0.464510835398908   Change is   -0.113951329472722
 Root      3 :     1.100562087098004   Change is   -0.120755071380685
 Iteration     4 Dimension    30 NMult    30
 CISAX:  IP=  1 NPass=   1 NMax=     3.
 CISAX will form     3 AO SS matrices at one time.
 NMat=     3 NSing=     3.
 Root      1 not converged, maximum delta is    0.017941176700962
 Excitation Energies [eV] at current iteration:
 Root      1 :    -0.594618472807542   Change is   -0.033339113885861
 Root      2 :     0.449046897375597   Change is   -0.015463938023310
 Root      3 :     1.079467281097210   Change is   -0.021094806000795
 Iteration     5 Dimension    33 NMult    33
 CISAX:  IP=  1 NPass=   1 NMax=     3.
 CISAX will form     3 AO SS matrices at one time.
 NMat=     3 NSing=     3.
 Root      1 not converged, maximum delta is    0.005622510244398
 Excitation Energies [eV] at current iteration:
 Root      1 :    -0.601144285652772   Change is   -0.006525812845231
 Root      2 :     0.444409194226640   Change is   -0.004637703148957
 Root      3 :     1.071116198765968   Change is   -0.008351082331242
 Cease iterating as an instability has been found.
 ***********************************************************************
 Stability analysis using <AA,BB:AA,BB> singles matrix:
 ***********************************************************************

 Eigenvectors of the stability matrix:
 
 Excited state symmetry could not be determined.
 Eigenvector   1:  1.000-?Sym  Eigenvalue=-0.0220916  <S**2>=0.000
     98B -> 99B        0.96441
 
 Excited state symmetry could not be determined.
 Eigenvector   2:  1.000-?Sym  Eigenvalue= 0.0163317  <S**2>=0.000
     97B -> 99B        0.97471
 
 Excited state symmetry could not be determined.
 Eigenvector   3:  1.000-?Sym  Eigenvalue= 0.0393628  <S**2>=0.000
     96B -> 99B        0.97468
 SavETr:  write IOETrn=   770 NScale= 10 NData=  16 NLR=1 LETran=      64.
 The wavefunction has an internal instability.
 Leave Link  914 at Wed Dec 26 23:00:47 2012, MaxMem= 1073741824 cpu:   14185.2
 (Enter /group/hpc-share/gaussian/2009B/g09/l508.exe)
 Direct SCF.
 Tight linear equation convergence will be used.
 UM06HF wavefunction.
 Quadratic Convergence SCF Method.
 Line search only if initial step raises energy.
 Two-electron integral symmetry not used.
 ReadGW:  IGet=1 IStart=           2 Next=     1219576 LGW=     1219574.
 Pruned (  99, 590) grid will be used in CalDFT.
 Perform preliminary linear searches along instability eigenvector.
     ILin= 1 X=0.000D+00 Y=-1.119039998318D+03 DE= 0.00D+00
 FoFCou: FMM=T IPFlag=           0 FMFlag=      100000 FMFlg1=        2001
         NFxFlg=           0 DoJE=F BraDBF=F KetDBF=F FulRan=T
         Omega=  0.000000  0.000000  1.000000  0.000000  0.000000 ICntrl=       0 IOpCl=  1
         NMat0=    1 NMatS0=    1 NMatT0=    0 NMatD0=    1 NMtDS0=    0 NMtDT0=    0
         I1Cent=           0 NGrid=           0.
 Symmetry not used in FoFCou.
 FMM levels:  10  Number of levels for PrismC:   9
     ILin= 2 X=1.000D-01 Y=-1.119040215704D+03 DE=-2.17D-04
     ILin= 3 X=1.414D-01 Y=-1.119040426874D+03 DE=-4.29D-04
     ILin= 4 X=2.000D-01 Y=-1.119040830438D+03 DE=-8.32D-04
     ILin= 5 X=2.828D-01 Y=-1.119041562003D+03 DE=-1.56D-03
     ILin= 6 X=4.000D-01 Y=-1.119042720474D+03 DE=-2.72D-03
     ILin= 7 X=5.657D-01 Y=-1.119043810303D+03 DE=-3.81D-03
     ILin= 8 X=8.000D-01 Y=-1.119041131481D+03 DE=-1.13D-03
     An  expanding polynomial of degree  8 produced  0.5887
 Iteration F X= 5.887D-01 EE=-1.119043832858008D+03
     ILin= 1 X=0.000D+00 Y=-1.119039998318D+03 DE= 0.00D+00
     ILin= 2 X=1.000D-01 Y=-1.119040215586D+03 DE=-2.17D-04
     ILin= 3 X=1.414D-01 Y=-1.119040426551D+03 DE=-4.28D-04
 The two search directions are symmetric.
 Iteration B X= 5.887D-01 EE=-1.119043832858008D+03
 Take forward step, X= 5.887D-01 Step= 5.887D-01
 Iteration   1 EE= -1119.04497384238                                    Grad=4.699D-02
 Gradient too large for Newton-Raphson -- use scaled steepest descent instead.
     ILin= 1 X=0.000D+00 Y=-1.119044973842D+03 DE= 0.00D+00
     ILin= 2 X=3.000D-01 Y=-1.119044452055D+03 DE= 5.22D-04
     ILin= 3 X=2.121D-01 Y=-1.119044313619D+03 DE= 6.60D-04
     ILin= 4 X=1.500D-01 Y=-1.119044194304D+03 DE= 7.80D-04
     ILin= 5 X=1.061D-01 Y=-1.119044099201D+03 DE= 8.75D-04
     ILin= 6 X=7.500D-02 Y=-1.119044026578D+03 DE= 9.47D-04
     ILin= 7 X=5.303D-02 Y=-1.119043972536D+03 DE= 1.00D-03
     ILin= 8 X=3.750D-02 Y=-1.119043932977D+03 DE= 1.04D-03
     ILin= 9 X=2.652D-02 Y=-1.119043904330D+03 DE= 1.07D-03
     ILin=10 X=1.875D-02 Y=-1.119043883737D+03 DE= 1.09D-03
     ILin=11 X=1.326D-02 Y=-1.119043869008D+03 DE= 1.10D-03
     ILin=12 X=9.375D-03 Y=-1.119043858508D+03 DE= 1.12D-03
     ILin=13 X=6.629D-03 Y=-1.119043851042D+03 DE= 1.12D-03
     ILin=14 X=4.687D-03 Y=-1.119043845741D+03 DE= 1.13D-03
     ILin=15 X=3.315D-03 Y=-1.119043841982D+03 DE= 1.13D-03
     ILin=16 X=2.344D-03 Y=-1.119043839319D+03 DE= 1.13D-03
 The polynomial fit failed.  Using point  1.
     A contracting polynomial of degree 16 produced  0.0000
 Search did not lower the energy significantly.
 Scaled steepest descent with Shift=0.000 failed.
     ILin= 1 X=0.000D+00 Y=-1.119044973842D+03 DE= 0.00D+00
     ILin= 2 X=3.000D-01 Y=-1.119044428196D+03 DE= 5.46D-04
     ILin= 3 X=2.121D-01 Y=-1.119044293981D+03 DE= 6.80D-04
     ILin= 4 X=1.500D-01 Y=-1.119044179026D+03 DE= 7.95D-04
     ILin= 5 X=1.061D-01 Y=-1.119044087700D+03 DE= 8.86D-04
     ILin= 6 X=7.500D-02 Y=-1.119044018095D+03 DE= 9.56D-04
     ILin= 7 X=5.303D-02 Y=-1.119043966362D+03 DE= 1.01D-03
     ILin= 8 X=3.750D-02 Y=-1.119043928523D+03 DE= 1.05D-03
     ILin= 9 X=2.652D-02 Y=-1.119043901137D+03 DE= 1.07D-03
     ILin=10 X=1.875D-02 Y=-1.119043881457D+03 DE= 1.09D-03
     ILin=11 X=1.326D-02 Y=-1.119043867385D+03 DE= 1.11D-03
     ILin=12 X=9.375D-03 Y=-1.119043857355D+03 DE= 1.12D-03
     ILin=13 X=6.629D-03 Y=-1.119043850223D+03 DE= 1.12D-03
     ILin=14 X=4.687D-03 Y=-1.119043845161D+03 DE= 1.13D-03
     ILin=15 X=3.315D-03 Y=-1.119043841571D+03 DE= 1.13D-03
     ILin=16 X=2.344D-03 Y=-1.119043839028D+03 DE= 1.13D-03
 The polynomial fit failed.  Using point  1.
     A contracting polynomial of degree 16 produced  0.0000
 Search did not lower the energy significantly.
 Scaled steepest descent with Shift=0.025 failed.
     ILin= 1 X=0.000D+00 Y=-1.119044973842D+03 DE= 0.00D+00
     ILin= 2 X=3.000D-01 Y=-1.119044407685D+03 DE= 5.66D-04
     ILin= 3 X=2.121D-01 Y=-1.119044277091D+03 DE= 6.97D-04
     ILin= 4 X=1.500D-01 Y=-1.119044165885D+03 DE= 8.08D-04
     ILin= 5 X=1.061D-01 Y=-1.119044077806D+03 DE= 8.96D-04
     ILin= 6 X=7.500D-02 Y=-1.119044010798D+03 DE= 9.63D-04
     ILin= 7 X=5.303D-02 Y=-1.119043961051D+03 DE= 1.01D-03
     ILin= 8 X=3.750D-02 Y=-1.119043924692D+03 DE= 1.05D-03
     ILin= 9 X=2.652D-02 Y=-1.119043898390D+03 DE= 1.08D-03
     ILin=10 X=1.875D-02 Y=-1.119043879496D+03 DE= 1.09D-03
     ILin=11 X=1.326D-02 Y=-1.119043865988D+03 DE= 1.11D-03
     ILin=12 X=9.375D-03 Y=-1.119043856363D+03 DE= 1.12D-03
     ILin=13 X=6.629D-03 Y=-1.119043849519D+03 DE= 1.12D-03
     ILin=14 X=4.687D-03 Y=-1.119043844662D+03 DE= 1.13D-03
     ILin=15 X=3.315D-03 Y=-1.119043841218D+03 DE= 1.13D-03
     ILin=16 X=2.344D-03 Y=-1.119043838778D+03 DE= 1.14D-03
 The polynomial fit failed.  Using point  1.
     A contracting polynomial of degree 16 produced  0.0000
 Search did not lower the energy significantly.
 Scaled steepest descent with Shift=0.050 failed.
     ILin= 1 X=0.000D+00 Y=-1.119044973842D+03 DE= 0.00D+00
     ILin= 2 X=3.000D-01 Y=-1.119044389652D+03 DE= 5.84D-04
     ILin= 3 X=2.121D-01 Y=-1.119044262244D+03 DE= 7.12D-04
     ILin= 4 X=1.500D-01 Y=-1.119044154334D+03 DE= 8.20D-04
     ILin= 5 X=1.061D-01 Y=-1.119044069111D+03 DE= 9.05D-04
     ILin= 6 X=7.500D-02 Y=-1.119044004386D+03 DE= 9.69D-04
     ILin= 7 X=5.303D-02 Y=-1.119043956385D+03 DE= 1.02D-03
     ILin= 8 X=3.750D-02 Y=-1.119043921326D+03 DE= 1.05D-03
     ILin= 9 X=2.652D-02 Y=-1.119043895977D+03 DE= 1.08D-03
     ILin=10 X=1.875D-02 Y=-1.119043877774D+03 DE= 1.10D-03
     ILin=11 X=1.326D-02 Y=-1.119043864762D+03 DE= 1.11D-03
     ILin=12 X=9.375D-03 Y=-1.119043855491D+03 DE= 1.12D-03
     ILin=13 X=6.629D-03 Y=-1.119043848901D+03 DE= 1.12D-03
     ILin=14 X=4.687D-03 Y=-1.119043844224D+03 DE= 1.13D-03
     ILin=15 X=3.315D-03 Y=-1.119043840908D+03 DE= 1.13D-03
     ILin=16 X=2.344D-03 Y=-1.119043838558D+03 DE= 1.14D-03
 The polynomial fit failed.  Using point  1.
     A contracting polynomial of degree 16 produced  0.0000
 Search did not lower the energy significantly.
 Scaled steepest descent with Shift=0.075 failed.
     ILin= 1 X=0.000D+00 Y=-1.119044973842D+03 DE= 0.00D+00
     ILin= 2 X=3.000D-01 Y=-1.119044373526D+03 DE= 6.00D-04
     ILin= 3 X=2.121D-01 Y=-1.119044248976D+03 DE= 7.25D-04
     ILin= 4 X=1.500D-01 Y=-1.119044144018D+03 DE= 8.30D-04
     ILin= 5 X=1.061D-01 Y=-1.119044061348D+03 DE= 9.12D-04
     ILin= 6 X=7.500D-02 Y=-1.119043998661D+03 DE= 9.75D-04
     ILin= 7 X=5.303D-02 Y=-1.119043952220D+03 DE= 1.02D-03
     ILin= 8 X=3.750D-02 Y=-1.119043918322D+03 DE= 1.06D-03
     ILin= 9 X=2.652D-02 Y=-1.119043893824D+03 DE= 1.08D-03
     ILin=10 X=1.875D-02 Y=-1.119043876236D+03 DE= 1.10D-03
     ILin=11 X=1.326D-02 Y=-1.119043863667D+03 DE= 1.11D-03
     ILin=12 X=9.375D-03 Y=-1.119043854714D+03 DE= 1.12D-03
     ILin=13 X=6.629D-03 Y=-1.119043848350D+03 DE= 1.13D-03
     ILin=14 X=4.687D-03 Y=-1.119043843833D+03 DE= 1.13D-03
     ILin=15 X=3.315D-03 Y=-1.119043840631D+03 DE= 1.13D-03
     ILin=16 X=2.344D-03 Y=-1.119043838362D+03 DE= 1.14D-03
 The polynomial fit failed.  Using point  1.
     A contracting polynomial of degree 16 produced  0.0000
 Search did not lower the energy significantly.
 No lower point found -- switch to steepest descent.
     ILin= 1 X=0.000D+00 Y=-1.119044973842D+03 DE= 0.00D+00
     ILin= 2 X=3.000D-01 Y=-1.119044147398D+03 DE= 8.26D-04
     ILin= 3 X=2.121D-01 Y=-1.119044155037D+03 DE= 8.19D-04
     ILin= 4 X=1.500D-01 Y=-1.119044110581D+03 DE= 8.63D-04
     ILin= 5 X=1.061D-01 Y=-1.119044054202D+03 DE= 9.20D-04
     ILin= 6 X=7.500D-02 Y=-1.119044001859D+03 DE= 9.72D-04
     ILin= 7 X=5.303D-02 Y=-1.119043958606D+03 DE= 1.02D-03
     ILin= 8 X=3.750D-02 Y=-1.119043924901D+03 DE= 1.05D-03
     ILin= 9 X=2.652D-02 Y=-1.119043899507D+03 DE= 1.07D-03
     ILin=10 X=1.875D-02 Y=-1.119043880771D+03 DE= 1.09D-03
     ILin=11 X=1.326D-02 Y=-1.119043867132D+03 DE= 1.11D-03
     ILin=12 X=9.375D-03 Y=-1.119043857292D+03 DE= 1.12D-03
     ILin=13 X=6.629D-03 Y=-1.119043850237D+03 DE= 1.12D-03
     ILin=14 X=4.687D-03 Y=-1.119043845200D+03 DE= 1.13D-03
     ILin=15 X=3.315D-03 Y=-1.119043841613D+03 DE= 1.13D-03
     ILin=16 X=2.344D-03 Y=-1.119043839065D+03 DE= 1.13D-03
 The polynomial fit failed.  Using point  1.
     A contracting polynomial of degree 16 produced  0.0000
 Search did not lower the energy significantly.
     ILin= 1 X=0.000D+00 Y=-1.119044973842D+03 DE= 0.00D+00
     ILin= 2 X=3.000D-01 Y=-1.119004105203D+03 DE= 4.09D-02
     ILin= 3 X=2.121D-01 Y=-1.119025526501D+03 DE= 1.94D-02
     ILin= 4 X=1.500D-01 Y=-1.119035816013D+03 DE= 9.16D-03
     ILin= 5 X=1.061D-01 Y=-1.119040639373D+03 DE= 4.33D-03
     ILin= 6 X=7.500D-02 Y=-1.119042816083D+03 DE= 2.16D-03
     ILin= 7 X=5.303D-02 Y=-1.119043735791D+03 DE= 1.24D-03
     ILin= 8 X=3.750D-02 Y=-1.119044075580D+03 DE= 8.98D-04
     ILin= 9 X=2.652D-02 Y=-1.119044160306D+03 DE= 8.14D-04
     ILin=10 X=1.875D-02 Y=-1.119044142356D+03 DE= 8.31D-04
     ILin=11 X=1.326D-02 Y=-1.119044090703D+03 DE= 8.83D-04
     ILin=12 X=9.375D-03 Y=-1.119044034688D+03 DE= 9.39D-04
     ILin=13 X=6.629D-03 Y=-1.119043985330D+03 DE= 9.89D-04
     ILin=14 X=4.687D-03 Y=-1.119043945553D+03 DE= 1.03D-03
     ILin=15 X=3.315D-03 Y=-1.119043914988D+03 DE= 1.06D-03
     ILin=16 X=2.344D-03 Y=-1.119043892157D+03 DE= 1.08D-03
 The polynomial fit failed.  Using point  1.
     A contracting polynomial of degree 16 produced  0.0000
 Search did not lower the energy significantly.
     ILin= 1 X=0.000D+00 Y=-1.119044973842D+03 DE= 0.00D+00
     ILin= 2 X=3.000D-01 Y=-1.119043907701D+03 DE= 1.07D-03
     ILin= 3 X=2.121D-01 Y=-1.119043886783D+03 DE= 1.09D-03
     ILin= 4 X=1.500D-01 Y=-1.119043871492D+03 DE= 1.10D-03
     ILin= 5 X=1.061D-01 Y=-1.119043860430D+03 DE= 1.11D-03
     ILin= 6 X=7.500D-02 Y=-1.119043852484D+03 DE= 1.12D-03
     ILin= 7 X=5.303D-02 Y=-1.119043846802D+03 DE= 1.13D-03
     ILin= 8 X=3.750D-02 Y=-1.119043842753D+03 DE= 1.13D-03
     ILin= 9 X=2.652D-02 Y=-1.119043839875D+03 DE= 1.13D-03
     ILin=10 X=1.875D-02 Y=-1.119043837831D+03 DE= 1.14D-03
     ILin=11 X=1.326D-02 Y=-1.119043836383D+03 DE= 1.14D-03
     ILin=12 X=9.375D-03 Y=-1.119043835356D+03 DE= 1.14D-03
     ILin=13 X=6.629D-03 Y=-1.119043834630D+03 DE= 1.14D-03
     ILin=14 X=4.687D-03 Y=-1.119043834115D+03 DE= 1.14D-03
     ILin=15 X=3.315D-03 Y=-1.119043833751D+03 DE= 1.14D-03
     ILin=16 X=2.344D-03 Y=-1.119043833494D+03 DE= 1.14D-03
 The polynomial fit failed.  Using point  1.
     A contracting polynomial of degree 16 produced  0.0000
 Search did not lower the energy significantly.
 No lower point found -- run aborted.
 Error termination via Lnk1e in /group/hpc-share/gaussian/2009B/g09/l508.exe at Thu Dec 27 01:48:30 2012.
 Job cpu time:  1 days  2 hours 28 minutes  2.8 seconds.
 File lengths (MBytes):  RWF=    443 Int=      0 D2E=      0 Chk=     33 Scr=      1
