 Entering Gaussian System, Link 0=g09
 Input=imN-scan39-v3.com
 Output=imN-scan39-v3.log
 AtFile(1): imN-scan39-v3.xyz
            C          1.19627       -0.65076       -0.35882
            N          0.11377       -1.38673        0.64046
            O         -2.53822       -1.32170       -0.36574
            H         -2.81618       -0.38827       -0.23013
            O         -2.87805        1.35429        0.08613
            H         -1.91060        1.49117        0.00824
            S          0.29216        1.26383       -0.59054
            H         -3.25385        1.85170       -0.64946
            H         -0.85488       -1.33696        0.26213
            O          2.31886       -0.58171        0.15723
            C          1.41930        2.19007        0.49729
            C          0.16434       -0.89446        2.03476
            C          0.97709       -1.29557       -1.72302
            H          1.60024       -0.78033       -2.45338
            H         -0.06564       -1.24738       -2.04258
            H          1.29071       -2.34434       -1.67817
            H          1.77510        3.08487       -0.01299
            H          2.26270        1.52120        0.69780
            H          0.93841        2.47009        1.43512
            H          0.38704       -2.37087        0.62858
            H         -0.25664        0.10794        2.06216
            H          1.20542       -0.86873        2.34921
            H         -0.41044       -1.55860        2.67887
            H         -3.12508       -1.84847        0.18777
 Initial command:
 /group/hpc-share/gaussian/2009B/g09/l1.exe /tmp/g_imN-scan39-v3.com-282528.hn1.marqnet.mu.edu/Gau-23651.inp -scrdir=/tmp/g_imN-scan39-v3.com-282528.hn1.marqnet.mu.edu/
 Entering Link 1 = /group/hpc-share/gaussian/2009B/g09/l1.exe PID=     23652.
  
 Copyright (c) 1988,1990,1992,1993,1995,1998,2003,2009,2010,
            Gaussian, Inc.  All Rights Reserved.
  
 This is part of the Gaussian(R) 09 program.  It is based on
 the Gaussian(R) 03 system (copyright 2003, Gaussian, Inc.),
 the Gaussian(R) 98 system (copyright 1998, Gaussian, Inc.),
 the Gaussian(R) 94 system (copyright 1995, Gaussian, Inc.),
 the Gaussian 92(TM) system (copyright 1992, Gaussian, Inc.),
 the Gaussian 90(TM) system (copyright 1990, Gaussian, Inc.),
 the Gaussian 88(TM) system (copyright 1988, Gaussian, Inc.),
 the Gaussian 86(TM) system (copyright 1986, Carnegie Mellon
 University), and the Gaussian 82(TM) system (copyright 1983,
 Carnegie Mellon University). Gaussian is a federally registered
 trademark of Gaussian, Inc.
  
 This software contains proprietary and confidential information,
 including trade secrets, belonging to Gaussian, Inc.
  
 This software is provided under written license and may be
 used, copied, transmitted, or stored only in accord with that
 written license.
  
 The following legend is applicable only to US Government
 contracts under FAR:
  
                    RESTRICTED RIGHTS LEGEND
  
 Use, reproduction and disclosure by the US Government is
 subject to restrictions as set forth in subparagraphs (a)
 and (c) of the Commercial Computer Software - Restricted
 Rights clause in FAR 52.227-19.
  
 Gaussian, Inc.
 340 Quinnipiac St., Bldg. 40, Wallingford CT 06492
  
  
 ---------------------------------------------------------------
 Warning -- This program may not be used in any manner that
 competes with the business of Gaussian, Inc. or will provide
 assistance to any competitor of Gaussian, Inc.  The licensee
 of this program is prohibited from giving any competitor of
 Gaussian, Inc. access to this program.  By using this program,
 the user acknowledges that Gaussian, Inc. is engaged in the
 business of creating and licensing software in the field of
 computational chemistry and represents and warrants to the
 licensee that it is not a competitor of Gaussian, Inc. and that
 it will not use this program in any manner prohibited above.
 ---------------------------------------------------------------
  

 Cite this work as:
 Gaussian 09, Revision B.01,
 M. J. Frisch, G. W. Trucks, H. B. Schlegel, G. E. Scuseria, 
 M. A. Robb, J. R. Cheeseman, G. Scalmani, V. Barone, B. Mennucci, 
 G. A. Petersson, H. Nakatsuji, M. Caricato, X. Li, H. P. Hratchian, 
 A. F. Izmaylov, J. Bloino, G. Zheng, J. L. Sonnenberg, M. Hada, 
 M. Ehara, K. Toyota, R. Fukuda, J. Hasegawa, M. Ishida, T. Nakajima, 
 Y. Honda, O. Kitao, H. Nakai, T. Vreven, J. A. Montgomery, Jr., 
 J. E. Peralta, F. Ogliaro, M. Bearpark, J. J. Heyd, E. Brothers, 
 K. N. Kudin, V. N. Staroverov, T. Keith, R. Kobayashi, J. Normand, 
 K. Raghavachari, A. Rendell, J. C. Burant, S. S. Iyengar, J. Tomasi, 
 M. Cossi, N. Rega, J. M. Millam, M. Klene, J. E. Knox, J. B. Cross, 
 V. Bakken, C. Adamo, J. Jaramillo, R. Gomperts, R. E. Stratmann, 
 O. Yazyev, A. J. Austin, R. Cammi, C. Pomelli, J. W. Ochterski, 
 R. L. Martin, K. Morokuma, V. G. Zakrzewski, G. A. Voth, 
 P. Salvador, J. J. Dannenberg, S. Dapprich, A. D. Daniels, 
 O. Farkas, J. B. Foresman, J. V. Ortiz, J. Cioslowski, 
 and D. J. Fox, Gaussian, Inc., Wallingford CT, 2010.
 
 ******************************************
 Gaussian 09:  EM64L-G09RevB.01 12-Aug-2010
                 1-Aug-2012 
 ******************************************
 %nproc=8
 Will use up to    8 processors via shared memory.
 %mem=12Gb
 %chk=imN-scan39-v3.chk
 ----------------------------------------------------
 #p cbs-qb3 scrf(pcm,solvent=water) opt(modredundant)
 ----------------------------------------------------
 1/14=-1,18=120,19=15,26=3,38=1/1,3;
 2/9=110,12=2,17=6,18=5,40=1/2;
 3/5=4,6=6,7=700,11=2,16=1,25=1,30=1,70=2201,71=1,72=1,74=-5/1,2,3;
 4//1;
 5/5=2,38=5,53=1/2;
 6/7=2,8=2,9=2,10=2,28=1/1;
 7//1,2,3,16;
 1/14=-1,18=20,19=15/3(2);
 2/9=110/2;
 99//99;
 2/9=110/2;
 3/5=4,6=6,7=700,11=2,16=1,25=1,30=1,70=2205,71=1,72=1,74=-5/1,2,3;
 4/5=5,16=3/1;
 5/5=2,38=5,53=1/2;
 7//1,2,3,16;
 1/14=-1,18=20,19=15/3(-5);
 2/9=110/2;
 6/7=2,8=2,9=2,10=2,19=2,28=1/1;
 99/9=1/99;
 Leave Link    1 at Wed Aug  1 07:37:45 2012, MaxMem= 1610612736 cpu:       0.5
 (Enter /group/hpc-share/gaussian/2009B/g09/l101.exe)


 Symbolic Z-matrix:
 Charge =  0 Multiplicity = 1
 C                     1.19627  -0.65076  -0.35882 
 N                     0.11377  -1.38673   0.64046 
 O                    -2.53822  -1.3217   -0.36574 
 H                    -2.81618  -0.38827  -0.23013 
 O                    -2.87805   1.35429   0.08613 
 H                    -1.9106    1.49117   0.00824 
 S                     0.29216   1.26383  -0.59054 
 H                    -3.25385   1.8517   -0.64946 
 H                    -0.85488  -1.33696   0.26213 
 O                     2.31886  -0.58171   0.15723 
 C                     1.4193    2.19007   0.49729 
 C                     0.16434  -0.89446   2.03476 
 C                     0.97709  -1.29557  -1.72302 
 H                     1.60024  -0.78033  -2.45338 
 H                    -0.06564  -1.24738  -2.04258 
 H                     1.29071  -2.34434  -1.67817 
 H                     1.7751    3.08487  -0.01299 
 H                     2.2627    1.5212    0.6978 
 H                     0.93841   2.47009   1.43512 
 H                     0.38704  -2.37087   0.62858 
 H                    -0.25664   0.10794   2.06216 
 H                     1.20542  -0.86873   2.34921 
 H                    -0.41044  -1.5586    2.67887 
 H                    -3.12508  -1.84847   0.18777 
 
 NAtoms=     24 NQM=     24 NQMF=      0 NMic=      0 NMicF=      0 NTot=     24.
 The following ModRedundant input section has been read:
 B       3       9 S  20 -0.050                                                
 D    *          9    *       *    K                                           
 D    *          4    *       *    K                                           
 D    *          6    *       *    K                                           
         2       3 B                                                           
         3       5 B                                                           
         5       7 B                                                           
                    Isotopes and Nuclear Properties:
 (Nuclear quadrupole moments (NQMom) in fm**2, nuclear magnetic moments (NMagM)
  in nuclear magnetons)

  Atom         1           2           3           4           5           6           7           8           9          10
 IAtWgt=          12          14          16           1          16           1          32           1           1          16
 AtmWgt=  12.0000000  14.0030740  15.9949146   1.0078250  15.9949146   1.0078250  31.9720718   1.0078250   1.0078250  15.9949146
 NucSpn=           0           2           0           1           0           1           0           1           1           0
 AtZEff=   0.0000000   0.0000000   0.0000000   0.0000000   0.0000000   0.0000000   0.0000000   0.0000000   0.0000000   0.0000000
 NQMom=    0.0000000   2.0440000   0.0000000   0.0000000   0.0000000   0.0000000   0.0000000   0.0000000   0.0000000   0.0000000
 NMagM=    0.0000000   0.4037610   0.0000000   2.7928460   0.0000000   2.7928460   0.0000000   2.7928460   2.7928460   0.0000000

  Atom        11          12          13          14          15          16          17          18          19          20
 IAtWgt=          12          12          12           1           1           1           1           1           1           1
 AtmWgt=  12.0000000  12.0000000  12.0000000   1.0078250   1.0078250   1.0078250   1.0078250   1.0078250   1.0078250   1.0078250
 NucSpn=           0           0           0           1           1           1           1           1           1           1
 AtZEff=   0.0000000   0.0000000   0.0000000   0.0000000   0.0000000   0.0000000   0.0000000   0.0000000   0.0000000   0.0000000
 NQMom=    0.0000000   0.0000000   0.0000000   0.0000000   0.0000000   0.0000000   0.0000000   0.0000000   0.0000000   0.0000000
 NMagM=    0.0000000   0.0000000   0.0000000   2.7928460   2.7928460   2.7928460   2.7928460   2.7928460   2.7928460   2.7928460

  Atom        21          22          23          24
 IAtWgt=           1           1           1           1
 AtmWgt=   1.0078250   1.0078250   1.0078250   1.0078250
 NucSpn=           1           1           1           1
 AtZEff=   0.0000000   0.0000000   0.0000000   0.0000000
 NQMom=    0.0000000   0.0000000   0.0000000   0.0000000
 NMagM=    2.7928460   2.7928460   2.7928460   2.7928460
 Leave Link  101 at Wed Aug  1 07:37:45 2012, MaxMem= 1610612736 cpu:       0.8
 (Enter /group/hpc-share/gaussian/2009B/g09/l103.exe)

 GradGradGradGradGradGradGradGradGradGradGradGradGradGradGradGradGradGrad
 Berny optimization.
 Initialization pass.
                           ----------------------------
                           !    Initial Parameters    !
                           ! (Angstroms and Degrees)  !
 --------------------------                            --------------------------
 ! Name  Definition              Value          Derivative Info.                !
 --------------------------------------------------------------------------------
 ! R1    R(1,2)                  1.6468         estimate D2E/DX2                !
 ! R2    R(1,7)                  2.13           estimate D2E/DX2                !
 ! R3    R(1,10)                 1.2375         estimate D2E/DX2                !
 ! R4    R(1,13)                 1.5247         estimate D2E/DX2                !
 ! R5    R(2,3)                  2.8372         calc D2E/DXDY, step=    0.0026  !
 ! R6    R(2,9)                  1.0411         estimate D2E/DX2                !
 ! R7    R(2,12)                 1.4795         estimate D2E/DX2                !
 ! R8    R(2,20)                 1.0214         estimate D2E/DX2                !
 ! R9    R(3,4)                  0.9833         estimate D2E/DX2                !
 ! R10   R(3,5)                  2.7351         calc D2E/DXDY, step=    0.0026  !
 ! R11   R(3,9)                  1.7967         Scan                            !
 ! R12   R(3,24)                 0.9635         estimate D2E/DX2                !
 ! R13   R(4,5)                  1.7721         estimate D2E/DX2                !
 ! R14   R(5,6)                  0.9802         estimate D2E/DX2                !
 ! R15   R(5,7)                  3.2429         calc D2E/DXDY, step=    0.0026  !
 ! R16   R(5,8)                  0.9642         estimate D2E/DX2                !
 ! R17   R(6,7)                  2.294          estimate D2E/DX2                !
 ! R18   R(7,11)                 1.8198         estimate D2E/DX2                !
 ! R19   R(11,17)                1.0898         estimate D2E/DX2                !
 ! R20   R(11,18)                1.0949         estimate D2E/DX2                !
 ! R21   R(11,19)                1.0905         estimate D2E/DX2                !
 ! R22   R(12,21)                1.0876         estimate D2E/DX2                !
 ! R23   R(12,22)                1.0878         estimate D2E/DX2                !
 ! R24   R(12,23)                1.0892         estimate D2E/DX2                !
 ! R25   R(13,14)                1.0896         estimate D2E/DX2                !
 ! R26   R(13,15)                1.0917         estimate D2E/DX2                !
 ! R27   R(13,16)                1.0956         estimate D2E/DX2                !
 ! A1    A(2,1,7)              100.8775         calc D2E/DXDY, step=    0.2865  !
 ! A2    A(2,1,10)             111.6048         calc D2E/DXDY, step=    0.2865  !
 ! A3    A(2,1,13)             105.0355         calc D2E/DXDY, step=    0.2865  !
 ! A4    A(7,1,10)             112.3512         calc D2E/DXDY, step=    0.2865  !
 ! A5    A(7,1,13)             102.8137         calc D2E/DXDY, step=    0.2865  !
 ! A6    A(10,1,13)            121.811          calc D2E/DXDY, step=    0.2865  !
 ! A7    A(1,2,3)              112.8909         calc D2E/DXDY, step=    0.2865  !
 ! A8    A(1,2,9)              111.6979         calc D2E/DXDY, step=    0.2865  !
 ! A9    A(1,2,12)             113.6208         calc D2E/DXDY, step=    0.2865  !
 ! A10   A(1,2,20)             104.3396         calc D2E/DXDY, step=    0.2865  !
 ! A11   A(3,2,12)             111.0107         calc D2E/DXDY, step=    0.2865  !
 ! A12   A(3,2,20)             105.5469         calc D2E/DXDY, step=    0.2865  !
 ! A13   A(9,2,12)             110.9995         calc D2E/DXDY, step=    0.2865  !
 ! A14   A(9,2,20)             106.9027         calc D2E/DXDY, step=    0.2865  !
 ! A15   A(12,2,20)            108.8075         calc D2E/DXDY, step=    0.2865  !
 ! A16   A(2,3,4)              103.7135         calc D2E/DXDY, step=    0.2865  !
 ! A17   A(2,3,5)               94.5869         calc D2E/DXDY, step=    0.2865  !
 ! A18   A(2,3,24)             110.6756         calc D2E/DXDY, step=    0.2865  !
 ! A19   A(4,3,9)              102.9857         calc D2E/DXDY, step=    0.2865  !
 ! A20   A(4,3,24)             105.521          calc D2E/DXDY, step=    0.2865  !
 ! A21   A(5,3,9)               93.8408         calc D2E/DXDY, step=    0.2865  !
 ! A22   A(5,3,24)             111.3669         calc D2E/DXDY, step=    0.2865  !
 ! A23   A(9,3,24)             111.4247         calc D2E/DXDY, step=    0.2865  !
 ! A24   A(3,5,6)               90.0497         calc D2E/DXDY, step=    0.2865  !
 ! A25   A(3,5,7)               79.442          calc D2E/DXDY, step=    0.2865  !
 ! A26   A(3,5,8)              115.2842         calc D2E/DXDY, step=    0.2865  !
 ! A27   A(4,5,6)               95.0875         calc D2E/DXDY, step=    0.2865  !
 ! A28   A(4,5,7)               84.3299         calc D2E/DXDY, step=    0.2865  !
 ! A29   A(4,5,8)              112.6265         calc D2E/DXDY, step=    0.2865  !
 ! A30   A(6,5,8)              104.5969         calc D2E/DXDY, step=    0.2865  !
 ! A31   A(7,5,8)              103.6631         calc D2E/DXDY, step=    0.2865  !
 ! A32   A(1,7,5)              114.6663         calc D2E/DXDY, step=    0.2865  !
 ! A33   A(1,7,6)              117.9224         calc D2E/DXDY, step=    0.2865  !
 ! A34   A(1,7,11)              97.4448         calc D2E/DXDY, step=    0.2865  !
 ! A35   A(5,7,11)             117.8112         calc D2E/DXDY, step=    0.2865  !
 ! A36   A(6,7,11)             112.8467         calc D2E/DXDY, step=    0.2865  !
 ! A37   A(7,11,17)            109.8905         calc D2E/DXDY, step=    0.2865  !
 ! A38   A(7,11,18)            105.9994         calc D2E/DXDY, step=    0.2865  !
 ! A39   A(7,11,19)            111.8171         calc D2E/DXDY, step=    0.2865  !
 ! A40   A(17,11,18)           109.6232         calc D2E/DXDY, step=    0.2865  !
 ! A41   A(17,11,19)           109.6224         calc D2E/DXDY, step=    0.2865  !
 ! A42   A(18,11,19)           109.8187         calc D2E/DXDY, step=    0.2865  !
 ! A43   A(2,12,21)            108.4927         calc D2E/DXDY, step=    0.2865  !
 ! A44   A(2,12,22)            108.2396         calc D2E/DXDY, step=    0.2865  !
 ! A45   A(2,12,23)            109.657          calc D2E/DXDY, step=    0.2865  !
 ! A46   A(21,12,22)           109.9602         calc D2E/DXDY, step=    0.2865  !
 ! A47   A(21,12,23)           110.0501         calc D2E/DXDY, step=    0.2865  !
 ! A48   A(22,12,23)           110.3964         calc D2E/DXDY, step=    0.2865  !
 ! A49   A(1,13,14)            108.5141         calc D2E/DXDY, step=    0.2865  !
 ! A50   A(1,13,15)            112.3672         calc D2E/DXDY, step=    0.2865  !
 ! A51   A(1,13,16)            109.0899         calc D2E/DXDY, step=    0.2865  !
 ! A52   A(14,13,15)           109.2193         calc D2E/DXDY, step=    0.2865  !
 ! A53   A(14,13,16)           108.4451         calc D2E/DXDY, step=    0.2865  !
 ! A54   A(15,13,16)           109.1274         calc D2E/DXDY, step=    0.2865  !
 --------------------------------------------------------------------------------
 Trust Radius=3.00D-01 FncErr=1.00D-07 GrdErr=1.00D-06
 Number of optimizations in scan=  21
 Number of steps in this run=     91 maximum allowed number of steps=    144.
 GradGradGradGradGradGradGradGradGradGradGradGradGradGradGradGradGradGrad

 Leave Link  103 at Wed Aug  1 07:37:45 2012, MaxMem= 1610612736 cpu:       0.1
 (Enter /group/hpc-share/gaussian/2009B/g09/l202.exe)
                          Input orientation:                          
 ---------------------------------------------------------------------
 Center     Atomic      Atomic             Coordinates (Angstroms)
 Number     Number       Type             X           Y           Z
 ---------------------------------------------------------------------
      1          6           0        1.196270   -0.650760   -0.358820
      2          7           0        0.113770   -1.386730    0.640460
      3          8           0       -2.538220   -1.321700   -0.365740
      4          1           0       -2.816180   -0.388270   -0.230130
      5          8           0       -2.878050    1.354290    0.086130
      6          1           0       -1.910600    1.491170    0.008240
      7         16           0        0.292160    1.263830   -0.590540
      8          1           0       -3.253850    1.851700   -0.649460
      9          1           0       -0.854880   -1.336960    0.262130
     10          8           0        2.318860   -0.581710    0.157230
     11          6           0        1.419300    2.190070    0.497290
     12          6           0        0.164340   -0.894460    2.034760
     13          6           0        0.977090   -1.295570   -1.723020
     14          1           0        1.600240   -0.780330   -2.453380
     15          1           0       -0.065640   -1.247380   -2.042580
     16          1           0        1.290710   -2.344340   -1.678170
     17          1           0        1.775100    3.084870   -0.012990
     18          1           0        2.262700    1.521200    0.697800
     19          1           0        0.938410    2.470090    1.435120
     20          1           0        0.387040   -2.370870    0.628580
     21          1           0       -0.256640    0.107940    2.062160
     22          1           0        1.205420   -0.868730    2.349210
     23          1           0       -0.410440   -1.558600    2.678870
     24          1           0       -3.125080   -1.848470    0.187770
 ---------------------------------------------------------------------
                    Distance matrix (angstroms):
                    1          2          3          4          5
     1  C    0.000000
     2  N    1.646821   0.000000
     3  O    3.794288   2.837203   0.000000
     4  H    4.023086   3.215502   0.983333   0.000000
     5  O    4.562706   4.095297   2.735067   1.772107   0.000000
     6  H    3.791469   3.574924   2.906201   2.099807   0.980185
     7  S    2.129968   2.927909   3.840124   3.538518   3.242884
     8  H    5.113741   4.846874   3.265439   2.320530   0.964228
     9  H    2.250259   1.041102   1.796688   2.233614   3.371501
    10  O    1.237451   2.396662   4.940881   5.153261   5.546262
    11  C    2.975396   3.810302   5.360906   5.011613   4.397135
    12  C    2.617918   1.479513   3.639885   3.777493   4.255605
    13  C    1.524750   2.517870   3.768328   4.176220   5.015664
    14  H    2.137092   3.485565   4.666709   4.959971   5.573221
    15  H    2.187103   2.692640   2.988472   3.404191   4.382892
    16  H    2.148911   2.770965   4.174802   4.773843   5.845612
    17  H    3.795994   4.814792   6.176327   5.761051   4.965535
    18  H    2.640290   3.616247   5.679967   5.504739   5.179702
    19  H    3.608936   4.023254   5.450479   5.004021   4.198827
    20  H    2.142100   1.021445   3.262909   3.863768   4.983160
    21  H    2.923648   2.095823   3.625490   3.471608   3.511392
    22  H    2.716803   2.092809   4.646609   4.801781   5.170887
    23  H    3.554328   2.111741   3.721991   3.952156   4.614794
    24  H    4.517448   3.302769   0.963465   1.549917   3.213880
                    6          7          8          9         10
     6  H    0.000000
     7  S    2.293986   0.000000
     8  H    1.538464   3.594892   0.000000
     9  H    3.029410   2.967635   4.093117   0.000000
    10  O    4.712469   2.841248   6.134112   3.264051   0.000000
    11  C    3.437421   1.819818   4.823677   4.203229   2.933873
    12  C    3.755448   3.400993   5.141056   2.092088   2.874872
    13  C    4.370576   2.881348   5.381328   2.701601   2.417702
    14  H    4.852348   3.059385   5.808950   3.702897   2.714986
    15  H    3.887081   2.922776   4.659374   2.437747   3.311815
    16  H    5.272903   3.898581   6.270408   3.063190   2.744567
    17  H    4.015559   2.418442   5.216909   5.152190   3.710587
    18  H    4.229991   2.368351   5.688292   4.251846   2.172004
    19  H    3.333336   2.444586   4.722597   4.368687   3.584987
    20  H    4.536444   3.834879   5.720102   1.656991   2.674919
    21  H    2.977834   2.945179   4.401914   2.384478   3.276824
    22  H    4.556188   3.744861   6.023110   2.969845   2.475259
    23  H    4.322481   4.375934   5.549136   2.467242   3.842143
    24  H    3.558144   4.687185   3.795892   2.328300   5.589463
                   11         12         13         14         15
    11  C    0.000000
    12  C    3.667842   0.000000
    13  C    4.156322   3.865535   0.000000
    14  H    4.190760   4.713622   1.089593   0.000000
    15  H    4.524605   4.099042   1.091662   1.778215   0.000000
    16  H    5.030908   4.142066   1.095576   1.772819   1.782078
    17  H    1.089792   4.756353   4.769620   4.574478   5.126007
    18  H    1.094950   3.467851   3.930312   3.958008   4.538269
    19  H    1.090501   3.504133   4.914829   5.111133   5.188651
    20  H    4.678138   2.051030   2.652254   3.674255   2.932958
    21  H    3.097234   1.087557   4.221317   4.962573   4.326923
    22  H    3.582124   1.087837   4.100900   4.819602   4.587678
    23  H    4.707416   1.089189   4.622884   5.566734   4.744242
    24  H    6.087446   3.891245   4.559015   5.517721   3.833529
                   16         17         18         19         20
    16  H    0.000000
    17  H    5.699454   0.000000
    18  H    4.640301   1.785508   0.000000
    19  H    5.744165   1.781861   1.788233   0.000000
    20  H    2.477583   5.665988   4.321007   4.938563   0.000000
    21  H    4.732657   4.158885   3.194661   2.720492   2.934957
    22  H    4.290045   4.640633   3.091401   3.471970   2.426260
    23  H    4.742900   5.795214   4.533816   4.426811   2.345090
    24  H    4.819421   6.956286   6.375185   6.059521   3.578017
                   21         22         23         24
    21  H    0.000000
    22  H    1.781545   0.000000
    23  H    1.783631   1.787624   0.000000
    24  H    3.945735   4.938111   3.695791   0.000000
 Stoichiometry    C4H15NO3S
 Framework group  C1[X(C4H15NO3S)]
 Deg. of freedom    66
 Full point group                 C1      NOp   1
 Largest Abelian subgroup         C1      NOp   1
 Largest concise Abelian subgroup C1      NOp   1
                         Standard orientation:                         
 ---------------------------------------------------------------------
 Center     Atomic      Atomic             Coordinates (Angstroms)
 Number     Number       Type             X           Y           Z
 ---------------------------------------------------------------------
      1          6           0        1.196271   -0.650757   -0.358820
      2          7           0        0.113773   -1.386729    0.640460
      3          8           0       -2.538218   -1.321703   -0.365740
      4          1           0       -2.816179   -0.388274   -0.230130
      5          8           0       -2.878052    1.354286    0.086130
      6          1           0       -1.910602    1.491168    0.008240
      7         16           0        0.292158    1.263832   -0.590540
      8          1           0       -3.253853    1.851696   -0.649460
      9          1           0       -0.854878   -1.336960    0.262130
     10          8           0        2.318861   -0.581705    0.157230
     11          6           0        1.419297    2.190073    0.497290
     12          6           0        0.164342   -0.894459    2.034760
     13          6           0        0.977092   -1.295567   -1.723020
     14          1           0        1.600242   -0.780326   -2.453380
     15          1           0       -0.065638   -1.247379   -2.042580
     16          1           0        1.290714   -2.344337   -1.678170
     17          1           0        1.775095    3.084874   -0.012990
     18          1           0        2.262698    1.521205    0.697800
     19          1           0        0.938406    2.470093    1.435120
     20          1           0        0.387044   -2.370868    0.628580
     21          1           0       -0.256640    0.107941    2.062160
     22          1           0        1.205422   -0.868727    2.349210
     23          1           0       -0.410437   -1.558600    2.678870
     24          1           0       -3.125077   -1.848474    0.187770
 ---------------------------------------------------------------------
 Rotational constants (GHZ):      1.1984556      0.8883775      0.7171757
 Leave Link  202 at Wed Aug  1 07:37:45 2012, MaxMem= 1610612736 cpu:       0.1
 (Enter /group/hpc-share/gaussian/2009B/g09/l301.exe)
 Standard basis: 6-311G(2d,d,p) (5D, 7F)
 Ernie: Thresh=  0.10000D-02 Tol=  0.10000D-05 Strict=F.
 There are   265 symmetry adapted basis functions of A   symmetry.
 Integral buffers will be    131072 words long.
 Raffenetti 2 integral format.
 Two-electron integral symmetry is turned on.
   265 basis functions,   428 primitive gaussians,   275 cartesian basis functions
    43 alpha electrons       43 beta electrons
       nuclear repulsion energy       619.2682540800 Hartrees.
 IExCor=  402 DFT=T Ex+Corr=B3LYP ExCW=0 ScaHFX=  0.200000
 ScaDFX=  0.800000  0.720000  1.000000  0.810000 ScalE2=  1.000000  1.000000
 IRadAn=      0 IRanWt=     -1 IRanGd=            0 ICorTp=0
 NAtoms=   24 NActive=   24 NUniq=   24 SFac= 1.00D+00 NAtFMM=   50 NAOKFM=F Big=F
 ------------------------------------------------------------------------------
 Polarizable Continuum Model (PCM)
 =================================
 Model                : PCM.
 Atomic radii         : UFF (Universal Force Field).
 Polarization charges : Total charges.
 Charge compensation  : None.
 Solution method      : Matrix inversion.
 Cavity type          : Scaled VdW (van der Waals Surface) (Alpha=1.100).
 Cavity algorithm     : GePol (No added spheres)
                        Default sphere list used, NSphG=   24.
                        Lebedev-Laikov grids with approx.  5.0 points / Ang**2.
                        Smoothing algorithm: Karplus/York (Gamma=1.0000).
                        Polarization charges: spherical gaussians, with
                                              point-specific exponents (IZeta= 3).
                        Self-potential: point-specific (ISelfS= 7).
                        Self-field    : sphere-specific E.n sum rule (ISelfD= 2).
 1st derivatives      : Analytical E(r).r(x)/FMM algorithm (CHGder, D1EAlg=3).
                        Cavity 1st derivative terms included.
 Solvent              : Water, Eps=  78.355300 Eps(inf)=   1.777849
 ------------------------------------------------------------------------------
 GePol: Number of generator spheres                  =      24
 GePol: Total number of spheres                      =      24
 GePol: Number of exposed spheres                    =      24 (100.00%)
 GePol: Number of points                             =    1890
 GePol: Average weight of points                     =       0.13
 GePol: Minimum weight of points                     =   0.80D-09
 GePol: Maximum weight of points                     =    0.20577
 GePol: Number of points with low weight             =     108
 GePol: Fraction of low-weight points (<1% of avg)   =       5.71%
 GePol: Cavity surface area                          =    243.445 Ang**2
 GePol: Cavity volume                                =    244.900 Ang**3
 Leave Link  301 at Wed Aug  1 07:37:46 2012, MaxMem= 1610612736 cpu:       1.6
 (Enter /group/hpc-share/gaussian/2009B/g09/l302.exe)
 NPDir=0 NMtPBC=     1 NCelOv=     1 NCel=       1 NClECP=     1 NCelD=      1
         NCelK=      1 NCelE2=     1 NClLst=     1 CellRange=     0.0.
 One-electron integrals computed using PRISM.
 NBasis=   265 RedAO= T  NBF=   265
 NBsUse=   265 1.00D-06 NBFU=   265
 Precomputing XC quadrature grid using
 IXCGrd= 2 IRadAn=           0 IRanWt=          -1 IRanGd=           0 AccXCQ= 0.00D+00.
 NRdTot=    1522 NPtTot=      193376 NUsed=      204355 NTot=      204387
 NSgBfM=   275   275   275   275   275 NAtAll=    24    24.
 Leave Link  302 at Wed Aug  1 07:37:46 2012, MaxMem= 1610612736 cpu:       3.6
 (Enter /group/hpc-share/gaussian/2009B/g09/l303.exe)
 DipDrv:  MaxL=1.
 Leave Link  303 at Wed Aug  1 07:37:47 2012, MaxMem= 1610612736 cpu:       0.9
 (Enter /group/hpc-share/gaussian/2009B/g09/l401.exe)
 Harris functional with IExCor=  402 diagonalized for initial guess.
 ExpMin= 7.71D-02 ExpMax= 9.34D+04 ExpMxC= 3.17D+03 IAcc=2 IRadAn=         0 AccDes= 0.00D+00
 HarFok:  IExCor=  402 AccDes= 0.00D+00 IRadAn=         0 IDoV= 1
 ScaDFX=  1.000000  1.000000  1.000000  1.000000
 FoFCou: FMM=F IPFlag=           0 FMFlag=      100000 FMFlg1=           0
         NFxFlg=           0 DoJE=T BraDBF=F KetDBF=T FulRan=T
         Omega=  0.000000  0.000000  1.000000  0.000000  0.000000 ICntrl=     500 IOpCl=  0
         NMat0=    1 NMatS0=    1 NMatT0=    0 NMatD0=    1 NMtDS0=    0 NMtDT0=    0
         I1Cent=           4 NGrid=           0.
 Petite list used in FoFCou.
 Harris En= -840.269545353188    
 Initial guess orbital symmetries:
       Occupied  (A) (A) (A) (A) (A) (A) (A) (A) (A) (A) (A) (A)
                 (A) (A) (A) (A) (A) (A) (A) (A) (A) (A) (A) (A)
                 (A) (A) (A) (A) (A) (A) (A) (A) (A) (A) (A) (A)
                 (A) (A) (A) (A) (A) (A) (A)
       Virtual   (A) (A) (A) (A) (A) (A) (A) (A) (A) (A) (A) (A)
                 (A) (A) (A) (A) (A) (A) (A) (A) (A) (A) (A) (A)
                 (A) (A) (A) (A) (A) (A) (A) (A) (A) (A) (A) (A)
                 (A) (A) (A) (A) (A) (A) (A) (A) (A) (A) (A) (A)
                 (A) (A) (A) (A) (A) (A) (A) (A) (A) (A) (A) (A)
                 (A) (A) (A) (A) (A) (A) (A) (A) (A) (A) (A) (A)
                 (A) (A) (A) (A) (A) (A) (A) (A) (A) (A) (A) (A)
                 (A) (A) (A) (A) (A) (A) (A) (A) (A) (A) (A) (A)
                 (A) (A) (A) (A) (A) (A) (A) (A) (A) (A) (A) (A)
                 (A) (A) (A) (A) (A) (A) (A) (A) (A) (A) (A) (A)
                 (A) (A) (A) (A) (A) (A) (A) (A) (A) (A) (A) (A)
                 (A) (A) (A) (A) (A) (A) (A) (A) (A) (A) (A) (A)
                 (A) (A) (A) (A) (A) (A) (A) (A) (A) (A) (A) (A)
                 (A) (A) (A) (A) (A) (A) (A) (A) (A) (A) (A) (A)
                 (A) (A) (A) (A) (A) (A) (A) (A) (A) (A) (A) (A)
                 (A) (A) (A) (A) (A) (A) (A) (A) (A) (A) (A) (A)
                 (A) (A) (A) (A) (A) (A) (A) (A) (A) (A) (A) (A)
                 (A) (A) (A) (A) (A) (A) (A) (A) (A) (A) (A) (A)
                 (A) (A) (A) (A) (A) (A)
 The electronic state of the initial guess is 1-A.
 Leave Link  401 at Wed Aug  1 07:37:48 2012, MaxMem= 1610612736 cpu:      10.2
 (Enter /group/hpc-share/gaussian/2009B/g09/l502.exe)
 Closed shell SCF:
 Requested convergence on RMS density matrix=1.00D-08 within 128 cycles.
 Requested convergence on MAX density matrix=1.00D-06.
 Requested convergence on             energy=1.00D-06.
 No special actions if energy rises.
 Using DIIS extrapolation, IDIIS=  1040.
 Integral symmetry usage will be decided dynamically.
       204126 words used for storage of precomputed grid.
 Keep R1 ints in memory in canonical form, NReq=731085812.
 IEnd=      453423 IEndB=      453423 NGot=  1610612736 MDV=   890131601
 LenX=   890131601 LenY=   890055535
 Symmetry not used in FoFDir.
 MinBra= 0 MaxBra= 2 Meth= 1.
 IRaf=       0 NMat=   1 IRICut=       1 DoRegI=T DoRafI=F ISym2E= 0 JSym2E=0.

 Cycle   1  Pass 1  IDiag  1:
 E= -839.860701590367    
 DIIS: error= 5.21D-02 at cycle   1 NSaved=   1.
 NSaved= 1 IEnMin= 1 EnMin= -839.860701590367     IErMin= 1 ErrMin= 5.21D-02
 ErrMax= 5.21D-02 EMaxC= 1.00D-01 BMatC= 5.38D-01 BMatP= 5.38D-01
 IDIUse=3 WtCom= 4.79D-01 WtEn= 5.21D-01
 Coeff-Com:  0.100D+01
 Coeff-En:   0.100D+01
 Coeff:      0.100D+01
 Gap=     0.267 Goal=   None    Shift=    0.000
 GapD=    0.267 DampG=1.000 DampE=0.500 DampFc=0.5000 IDamp=-1.
 Damping current iteration by 5.00D-01
 RMSDP=5.19D-03 MaxDP=1.82D-01              OVMax= 4.32D-01

 Cycle   2  Pass 1  IDiag  1:
 E= -839.945576601396     Delta-E=       -0.084875011029 Rises=F Damp=T
 DIIS: error= 1.51D-02 at cycle   2 NSaved=   2.
 NSaved= 2 IEnMin= 2 EnMin= -839.945576601396     IErMin= 2 ErrMin= 1.51D-02
 ErrMax= 1.51D-02 EMaxC= 1.00D-01 BMatC= 7.73D-02 BMatP= 5.38D-01
 IDIUse=3 WtCom= 8.49D-01 WtEn= 1.51D-01
 Coeff-Com:  0.222D+00 0.778D+00
 Coeff-En:   0.393D+00 0.607D+00
 Coeff:      0.248D+00 0.752D+00
 Gap=     0.270 Goal=   None    Shift=    0.000
 RMSDP=1.70D-03 MaxDP=6.88D-02 DE=-8.49D-02 OVMax= 2.83D-01

 Cycle   3  Pass 1  IDiag  1:
 E= -840.206227898062     Delta-E=       -0.260651296666 Rises=F Damp=F
 DIIS: error= 1.52D-02 at cycle   3 NSaved=   3.
 NSaved= 3 IEnMin= 3 EnMin= -840.206227898062     IErMin= 2 ErrMin= 1.51D-02
 ErrMax= 1.52D-02 EMaxC= 1.00D-01 BMatC= 6.41D-02 BMatP= 7.73D-02
 IDIUse=3 WtCom= 8.48D-01 WtEn= 1.52D-01
 Coeff-Com:  0.906D-01 0.480D+00 0.430D+00
 Coeff-En:   0.000D+00 0.000D+00 0.100D+01
 Coeff:      0.768D-01 0.407D+00 0.517D+00
 Gap=     0.230 Goal=   None    Shift=    0.000
 RMSDP=9.66D-04 MaxDP=3.10D-02 DE=-2.61D-01 OVMax= 8.23D-02

 Cycle   4  Pass 1  IDiag  1:
 E= -840.249280287037     Delta-E=       -0.043052388975 Rises=F Damp=F
 DIIS: error= 5.90D-03 at cycle   4 NSaved=   4.
 NSaved= 4 IEnMin= 4 EnMin= -840.249280287037     IErMin= 4 ErrMin= 5.90D-03
 ErrMax= 5.90D-03 EMaxC= 1.00D-01 BMatC= 1.16D-02 BMatP= 6.41D-02
 IDIUse=3 WtCom= 9.41D-01 WtEn= 5.90D-02
 Coeff-Com:  0.254D-02 0.812D-01 0.306D+00 0.610D+00
 Coeff-En:   0.000D+00 0.000D+00 0.162D+00 0.838D+00
 Coeff:      0.239D-02 0.764D-01 0.298D+00 0.623D+00
 Gap=     0.233 Goal=   None    Shift=    0.000
 RMSDP=3.09D-04 MaxDP=1.22D-02 DE=-4.31D-02 OVMax= 2.58D-02

 Cycle   5  Pass 1  IDiag  1:
 E= -840.257311243471     Delta-E=       -0.008030956434 Rises=F Damp=F
 DIIS: error= 1.40D-03 at cycle   5 NSaved=   5.
 NSaved= 5 IEnMin= 5 EnMin= -840.257311243471     IErMin= 5 ErrMin= 1.40D-03
 ErrMax= 1.40D-03 EMaxC= 1.00D-01 BMatC= 4.54D-04 BMatP= 1.16D-02
 IDIUse=3 WtCom= 9.86D-01 WtEn= 1.40D-02
 Coeff-Com: -0.240D-02 0.166D-01 0.118D+00 0.312D+00 0.556D+00
 Coeff-En:   0.000D+00 0.000D+00 0.000D+00 0.000D+00 0.100D+01
 Coeff:     -0.237D-02 0.163D-01 0.116D+00 0.308D+00 0.562D+00
 Gap=     0.228 Goal=   None    Shift=    0.000
 RMSDP=7.24D-05 MaxDP=3.88D-03 DE=-8.03D-03 OVMax= 3.93D-03

 Cycle   6  Pass 1  IDiag  1:
