                                                                        
FOpt      RPBE1PBE                                                    Gen                 
Number of atoms                            I               17
Info1-9                                    I   N=           9
           7           6           0           0           0         110
           2          18        -302
Charge                                     I                0
Multiplicity                               I                1
Number of electrons                        I               70
Number of alpha electrons                  I               35
Number of beta electrons                   I               35
Number of basis functions                  I              139
Number of independent functions            I              139
Number of point charges in /Mol/           I                0
Number of translation vectors              I                0
Atomic numbers                             I   N=          17
           6          16           1           1           7           8
           1           6           6           6           6           1
           1           1           1           1           1
Nuclear charges                            R   N=          17
  6.00000000E+00  1.60000000E+01  1.00000000E+00  1.00000000E+00  7.00000000E+00
  8.00000000E+00  1.00000000E+00  6.00000000E+00  6.00000000E+00  6.00000000E+00
  6.00000000E+00  1.00000000E+00  1.00000000E+00  1.00000000E+00  1.00000000E+00
  1.00000000E+00  1.00000000E+00
Current cartesian coordinates              R   N=          51
  2.96329176E+00 -2.41633235E-01  2.61913066E+00  3.29989322E+00 -3.10863308E-01
 -7.26451963E-01  2.24140938E+00  1.60622832E+00  3.24650257E+00  4.78863497E+00
 -6.53555530E-01  3.53028245E+00  1.09440129E+00 -2.60430718E+00 -1.67834164E+00
 -1.30177391E-01 -3.62653413E+00 -1.07232019E-01  1.57518686E+00 -1.72929016E+00
  3.10738030E+00 -5.34369829E+00 -1.04256311E+00  8.76412118E-01 -3.69123817E+00
  1.10163351E+00  3.60374320E-01 -2.31861573E+00  2.88736327E+00 -8.06393250E-02
 -7.00641268E-01  5.05030433E+00 -6.28074936E-01 -4.68905421E+00 -2.11701310E+00
  2.54155075E+00 -5.39266788E+00 -2.36480053E+00 -7.36749622E-01 -7.29857578E+00
 -4.18037209E-01  1.24925269E+00  8.37917114E-01  5.23404848E+00  7.70577744E-01
 -1.78654665E+00  6.83323515E+00 -5.98412192E-01  1.84914839E-01  4.87527320E+00
 -2.50863218E+00
Force Field                                I                0
Int Atom Types                             I   N=          17
           0           0           0           0           0           0
           0           0           0           0           0           0
           0           0           0           0           0
MM charges                                 R   N=          17
  0.00000000E+00  0.00000000E+00  0.00000000E+00  0.00000000E+00  0.00000000E+00
  0.00000000E+00  0.00000000E+00  0.00000000E+00  0.00000000E+00  0.00000000E+00
  0.00000000E+00  0.00000000E+00  0.00000000E+00  0.00000000E+00  0.00000000E+00
  0.00000000E+00  0.00000000E+00
Integer atomic weights                     I   N=          17
          12          32           1           1          14          16
           1          12          12          12          12           1
           1           1           1           1           1
Real atomic weights                        R   N=          17
  1.20000000E+01  3.19720718E+01  1.00782504E+00  1.00782504E+00  1.40030740E+01
  1.59949146E+01  1.00782504E+00  1.20000000E+01  1.20000000E+01  1.20000000E+01
  1.20000000E+01  1.00782504E+00  1.00782504E+00  1.00782504E+00  1.00782504E+00
  1.00782504E+00  1.00782504E+00
Atom fragment info                         I   N=          17
           0           0           0           0           0           0
           0           0           0           0           0           0
           0           0           0           0           0
Atom residue num                           I   N=          17
           0           0           0           0           0           0
           0           0           0           0           0           0
           0           0           0           0           0
Nuclear spins                              I   N=          17
           0           0           1           1           2           0
           1           0           0           0           0           1
           1           1           1           1           1
Nuclear ZEff                               R   N=          17
 -3.60000000E+00 -1.36000000E+01 -1.00000000E+00 -1.00000000E+00 -4.55000000E+00
 -5.60000000E+00 -1.00000000E+00 -3.60000000E+00 -3.60000000E+00 -3.60000000E+00
 -3.60000000E+00 -1.00000000E+00 -1.00000000E+00 -1.00000000E+00 -1.00000000E+00
 -1.00000000E+00 -1.00000000E+00
Nuclear QMom                               R   N=          17
  0.00000000E+00  0.00000000E+00  0.00000000E+00  0.00000000E+00  2.04400000E+00
  0.00000000E+00  0.00000000E+00  0.00000000E+00  0.00000000E+00  0.00000000E+00
  0.00000000E+00  0.00000000E+00  0.00000000E+00  0.00000000E+00  0.00000000E+00
  0.00000000E+00  0.00000000E+00
Nuclear GFac                               R   N=          17
  0.00000000E+00  0.00000000E+00  2.79284600E+00  2.79284600E+00  4.03761000E-01
  0.00000000E+00  2.79284600E+00  0.00000000E+00  0.00000000E+00  0.00000000E+00
  0.00000000E+00  2.79284600E+00  2.79284600E+00  2.79284600E+00  2.79284600E+00
  2.79284600E+00  2.79284600E+00
MicOpt                                     I   N=          17
          -1          -1          -1          -1          -1          -1
          -1          -1          -1          -1          -1          -1
          -1          -1          -1          -1          -1
Number of contracted shells                I               69
Number of primitive shells                 I              139
Pure/Cartesian d shells                    I                0
Pure/Cartesian f shells                    I                0
Highest angular momentum                   I                2
Largest degree of contraction              I                5
Shell types                                I   N=          69
           0           0           0           1           1          -2
           0           0           0           0           1           1
           1          -2          -2           0           0           0
           0           0           0           0           1           1
          -2           0           0           0           1           1
          -2           0           0           0           0           0
           1           1          -2           0           0           0
           1           1          -2           0           0           0
           1           1          -2           0           0           0
           1           1          -2           0           0           0
           0           0           0           0           0           0
           0           0           0
Number of primitives per shell             I   N=          69
           5           1           1           3           1           1
           5           3           1           1           5           1
           1           1           1           3           1           3
           1           5           1           1           3           1
           1           5           1           1           3           1
           1           3           1           5           1           1
           3           1           1           5           1           1
           3           1           1           5           1           1
           3           1           1           5           1           1
           3           1           1           3           1           3
           1           3           1           3           1           3
           1           3           1
Shell to atom map                          I   N=          69
           1           1           1           1           1           1
           2           2           2           2           2           2
           2           2           2           3           3           4
           4           5           5           5           5           5
           5           6           6           6           6           6
           6           7           7           8           8           8
           8           8           8           9           9           9
           9           9           9          10          10          10
          10          10          10          11          11          11
          11          11          11          12          12          13
          13          14          14          15          15          16
          16          17          17
Primitive exponents                        R   N=         139
  1.23840169E+03  1.86290050E+02  4.22511763E+01  1.16765579E+01  3.59305065E+00
  4.02451474E-01  1.30901827E-01  9.46809706E+00  2.01035451E+00  5.47710047E-01
  1.52686138E-01  8.00000000E-01  9.18493030E+03  1.38151055E+03  3.13871476E+02
  8.80538706E+01  2.70399149E+01  4.56487313E+01  4.96645223E+00  2.01162420E+00
  3.56610770E-01  1.35072215E-01  2.61982334E+02  6.13068947E+01  1.91037299E+01
  6.65677204E+00  2.39596352E+00  6.17761617E-01  1.69933769E-01  5.50000000E-01
  2.99400000E+00  1.30107010E+01  1.96225720E+00  4.44537960E-01  1.21949620E-01
  1.30107010E+01  1.96225720E+00  4.44537960E-01  1.21949620E-01  1.71284159E+03
  2.57648127E+02  5.84582459E+01  1.61983679E+01  5.00526008E+00  5.87318566E-01
  1.87645923E-01  1.35714702E+01  2.92573729E+00  7.99277508E-01  2.19543480E-01
  1.00000000E+00  2.26617678E+03  3.40870102E+02  7.73631352E+01  2.14796449E+01
  6.65894331E+00  8.09759757E-01  2.55307722E-01  1.77215043E+01  3.86355054E+00
  1.04809209E+00  2.76415444E-01  1.20000000E+00  1.30107010E+01  1.96225720E+00
  4.44537960E-01  1.21949620E-01  1.23840169E+03  1.86290050E+02  4.22511763E+01
  1.16765579E+01  3.59305065E+00  4.02451474E-01  1.30901827E-01  9.46809706E+00
  2.01035451E+00  5.47710047E-01  1.52686138E-01  8.00000000E-01  1.23840169E+03
  1.86290050E+02  4.22511763E+01  1.16765579E+01  3.59305065E+00  4.02451474E-01
  1.30901827E-01  9.46809706E+00  2.01035451E+00  5.47710047E-01  1.52686138E-01
  8.00000000E-01  1.23840169E+03  1.86290050E+02  4.22511763E+01  1.16765579E+01
  3.59305065E+00  4.02451474E-01  1.30901827E-01  9.46809706E+00  2.01035451E+00
  5.47710047E-01  1.52686138E-01  8.00000000E-01  1.23840169E+03  1.86290050E+02
  4.22511763E+01  1.16765579E+01  3.59305065E+00  4.02451474E-01  1.30901827E-01
  9.46809706E+00  2.01035451E+00  5.47710047E-01  1.52686138E-01  8.00000000E-01
  1.30107010E+01  1.96225720E+00  4.44537960E-01  1.21949620E-01  1.30107010E+01
  1.96225720E+00  4.44537960E-01  1.21949620E-01  1.30107010E+01  1.96225720E+00
  4.44537960E-01  1.21949620E-01  1.30107010E+01  1.96225720E+00  4.44537960E-01
  1.21949620E-01  1.30107010E+01  1.96225720E+00  4.44537960E-01  1.21949620E-01
  1.30107010E+01  1.96225720E+00  4.44537960E-01  1.21949620E-01
Contraction coefficients                   R   N=         139
  5.51736505E-03  4.10888286E-02  1.82253821E-01  4.68284594E-01  4.45758173E-01
  1.00000000E+00  1.00000000E+00  5.68883320E-02  3.12940593E-01  7.60650165E-01
  1.00000000E+00  1.00000000E+00 -5.47294661E-03 -4.09544022E-02 -1.84758290E-01
 -4.75672806E-01 -4.34951536E-01 -9.19040458E-02  5.56987772E-01  5.11154683E-01
  1.00000000E+00  1.00000000E+00 -9.18305466E-03 -6.59022265E-02 -2.45877845E-01
 -4.82314711E-01 -3.89563144E-01  1.00000000E+00  1.00000000E+00  1.00000000E+00
  1.00000000E+00  3.34854848E-02  2.34721871E-01  8.13770285E-01  1.00000000E+00
  3.34854848E-02  2.34721871E-01  8.13770285E-01  1.00000000E+00 -5.44779958E-03
 -4.06271746E-02 -1.81119623E-01 -4.68439756E-01 -4.46168463E-01  1.00000000E+00
  1.00000000E+00 -5.88481170E-02 -3.20246248E-01 -7.53282265E-01  1.00000000E+00
  1.00000000E+00 -5.38935039E-03 -4.02347214E-02 -1.80081842E-01 -4.68288577E-01
 -4.46926172E-01  1.00000000E+00  1.00000000E+00  6.26302488E-02  3.33311385E-01
  7.41486383E-01  1.00000000E+00  1.00000000E+00  3.34854848E-02  2.34721871E-01
  8.13770285E-01  1.00000000E+00  5.51736505E-03  4.10888286E-02  1.82253821E-01
  4.68284594E-01  4.45758173E-01  1.00000000E+00  1.00000000E+00  5.68883320E-02
  3.12940593E-01  7.60650165E-01  1.00000000E+00  1.00000000E+00  5.51736505E-03
  4.10888286E-02  1.82253821E-01  4.68284594E-01  4.45758173E-01  1.00000000E+00
  1.00000000E+00  5.68883320E-02  3.12940593E-01  7.60650165E-01  1.00000000E+00
  1.00000000E+00  5.51736505E-03  4.10888286E-02  1.82253821E-01  4.68284594E-01
  4.45758173E-01  1.00000000E+00  1.00000000E+00  5.68883320E-02  3.12940593E-01
  7.60650165E-01  1.00000000E+00  1.00000000E+00  5.51736505E-03  4.10888286E-02
  1.82253821E-01  4.68284594E-01  4.45758173E-01  1.00000000E+00  1.00000000E+00
  5.68883320E-02  3.12940593E-01  7.60650165E-01  1.00000000E+00  1.00000000E+00
  3.34854848E-02  2.34721871E-01  8.13770285E-01  1.00000000E+00  3.34854848E-02
  2.34721871E-01  8.13770285E-01  1.00000000E+00  3.34854848E-02  2.34721871E-01
  8.13770285E-01  1.00000000E+00  3.34854848E-02  2.34721871E-01  8.13770285E-01
  1.00000000E+00  3.34854848E-02  2.34721871E-01  8.13770285E-01  1.00000000E+00
  3.34854848E-02  2.34721871E-01  8.13770285E-01  1.00000000E+00
Coordinates of each shell                  R   N=         207
  2.96329176E+00 -2.41633235E-01  2.61913066E+00  2.96329176E+00 -2.41633235E-01
  2.61913066E+00  2.96329176E+00 -2.41633235E-01  2.61913066E+00  2.96329176E+00
 -2.41633235E-01  2.61913066E+00  2.96329176E+00 -2.41633235E-01  2.61913066E+00
  2.96329176E+00 -2.41633235E-01  2.61913066E+00  3.29989322E+00 -3.10863308E-01
 -7.26451963E-01  3.29989322E+00 -3.10863308E-01 -7.26451963E-01  3.29989322E+00
 -3.10863308E-01 -7.26451963E-01  3.29989322E+00 -3.10863308E-01 -7.26451963E-01
  3.29989322E+00 -3.10863308E-01 -7.26451963E-01  3.29989322E+00 -3.10863308E-01
 -7.26451963E-01  3.29989322E+00 -3.10863308E-01 -7.26451963E-01  3.29989322E+00
 -3.10863308E-01 -7.26451963E-01  3.29989322E+00 -3.10863308E-01 -7.26451963E-01
  2.24140938E+00  1.60622832E+00  3.24650257E+00  2.24140938E+00  1.60622832E+00
  3.24650257E+00  4.78863497E+00 -6.53555530E-01  3.53028245E+00  4.78863497E+00
 -6.53555530E-01  3.53028245E+00  1.09440129E+00 -2.60430718E+00 -1.67834164E+00
  1.09440129E+00 -2.60430718E+00 -1.67834164E+00  1.09440129E+00 -2.60430718E+00
 -1.67834164E+00  1.09440129E+00 -2.60430718E+00 -1.67834164E+00  1.09440129E+00
 -2.60430718E+00 -1.67834164E+00  1.09440129E+00 -2.60430718E+00 -1.67834164E+00
 -1.30177391E-01 -3.62653413E+00 -1.07232019E-01 -1.30177391E-01 -3.62653413E+00
 -1.07232019E-01 -1.30177391E-01 -3.62653413E+00 -1.07232019E-01 -1.30177391E-01
 -3.62653413E+00 -1.07232019E-01 -1.30177391E-01 -3.62653413E+00 -1.07232019E-01
 -1.30177391E-01 -3.62653413E+00 -1.07232019E-01  1.57518686E+00 -1.72929016E+00
  3.10738030E+00  1.57518686E+00 -1.72929016E+00  3.10738030E+00 -5.34369829E+00
 -1.04256311E+00  8.76412118E-01 -5.34369829E+00 -1.04256311E+00  8.76412118E-01
 -5.34369829E+00 -1.04256311E+00  8.76412118E-01 -5.34369829E+00 -1.04256311E+00
  8.76412118E-01 -5.34369829E+00 -1.04256311E+00  8.76412118E-01 -5.34369829E+00
 -1.04256311E+00  8.76412118E-01 -3.69123817E+00  1.10163351E+00  3.60374320E-01
 -3.69123817E+00  1.10163351E+00  3.60374320E-01 -3.69123817E+00  1.10163351E+00
  3.60374320E-01 -3.69123817E+00  1.10163351E+00  3.60374320E-01 -3.69123817E+00
  1.10163351E+00  3.60374320E-01 -3.69123817E+00  1.10163351E+00  3.60374320E-01
 -2.31861573E+00  2.88736327E+00 -8.06393250E-02 -2.31861573E+00  2.88736327E+00
 -8.06393250E-02 -2.31861573E+00  2.88736327E+00 -8.06393250E-02 -2.31861573E+00
  2.88736327E+00 -8.06393250E-02 -2.31861573E+00  2.88736327E+00 -8.06393250E-02
 -2.31861573E+00  2.88736327E+00 -8.06393250E-02 -7.00641268E-01  5.05030433E+00
 -6.28074936E-01 -7.00641268E-01  5.05030433E+00 -6.28074936E-01 -7.00641268E-01
  5.05030433E+00 -6.28074936E-01 -7.00641268E-01  5.05030433E+00 -6.28074936E-01
 -7.00641268E-01  5.05030433E+00 -6.28074936E-01 -7.00641268E-01  5.05030433E+00
 -6.28074936E-01 -4.68905421E+00 -2.11701310E+00  2.54155075E+00 -4.68905421E+00
 -2.11701310E+00  2.54155075E+00 -5.39266788E+00 -2.36480053E+00 -7.36749622E-01
 -5.39266788E+00 -2.36480053E+00 -7.36749622E-01 -7.29857578E+00 -4.18037209E-01
  1.24925269E+00 -7.29857578E+00 -4.18037209E-01  1.24925269E+00  8.37917114E-01
  5.23404848E+00  7.70577744E-01  8.37917114E-01  5.23404848E+00  7.70577744E-01
 -1.78654665E+00  6.83323515E+00 -5.98412192E-01 -1.78654665E+00  6.83323515E+00
 -5.98412192E-01  1.84914839E-01  4.87527320E+00 -2.50863218E+00  1.84914839E-01
  4.87527320E+00 -2.50863218E+00
Constraint Structure                       R   N=          51
  2.94913186E+00  4.13673363E-02  2.67379559E+00  2.77443827E+00 -7.01131564E-02
 -7.09859511E-01  2.52825718E+00  1.95333957E+00  3.37791593E+00  4.87160821E+00
 -5.29110614E-01  3.23730751E+00  1.02829076E+00 -2.54124769E+00 -1.57649059E+00
 -7.01821406E-01 -3.00759446E+00 -9.25243644E-02  1.52635348E+00 -1.29919743E+00
  3.40039454E+00 -5.15094316E+00 -9.39671557E-01  7.49739483E-01 -2.72084236E+00
  2.50208730E-01  1.87475501E-01 -1.22265256E+00  2.01622245E+00 -1.94088680E-01
 -6.65581400E-01  4.72295494E+00 -4.88064879E-01 -4.98819374E+00 -2.27670439E+00
  2.34328166E+00 -5.87891281E+00 -2.01314584E+00 -8.84659282E-01 -6.55792581E+00
  5.17359539E-01  1.25803699E+00  8.89438453E-01  5.35587760E+00  7.54185935E-01
 -2.35545983E+00  5.85627485E+00 -2.15621661E-02 -1.03923045E-01  5.17578808E+00
 -2.44609482E+00
Num ILSW                                   I              100
ILSW                                       I   N=         100
           0           0           0           0           2           0
           0           0           0           0        1009          -1
           0           0           0           0           0           0
           0           0           0           0           0           1
           0           1           0           0           0           0
           0           0      100000           0          -1           0
           0           0           0           0           0           0
           0           0           0           1           0           0
           0           0           1           0           0           0
           0           0           4          40           0           0
           0           0          13           0           0           0
           0           0           0           0           0           0
           0           0           0           0           0           0
           0           0           0           0           0           0
           0           0           0           0           0           0
           0           0           0           0           0           0
           0           0           0           0
Num RLSW                                   I               40
RLSW                                       R   N=          40
  7.50000000E-01  7.50000000E-01  1.00000000E+00  1.00000000E+00  2.50000000E-01
  0.00000000E+00  0.00000000E+00  1.00000000E+00  0.00000000E+00  0.00000000E+00
  0.00000000E+00  0.00000000E+00  1.00000000E+00  0.00000000E+00  0.00000000E+00
  0.00000000E+00  0.00000000E+00  1.00000000E+00  0.00000000E+00  0.00000000E+00
  0.00000000E+00  0.00000000E+00  1.00000000E+00  0.00000000E+00  0.00000000E+00
  0.00000000E+00  0.00000000E+00  1.00000000E+00  0.00000000E+00  0.00000000E+00
  0.00000000E+00  0.00000000E+00  1.00000000E+00  0.00000000E+00  0.00000000E+00
  0.00000000E+00  0.00000000E+00  0.00000000E+00  1.00000000E+00  1.00000000E+00
MxBond                                     I                4
NBond                                      I   N=          17
           4           2           1           1           2           1
           1           4           2           2           4           1
           1           1           1           1           1
IBond                                      I   N=          68
           2           3           4           7           1           5
           0           0           1           0           0           0
           1           0           0           0           2           6
           0           0           5           0           0           0
           1           0           0           0           9          12
          13          14           8          10           0           0
           9          11           0           0          10          15
          16          17           8           0           0           0
           8           0           0           0           8           0
           0           0          11           0           0           0
          11           0           0           0          11           0
           0           0
RBond                                      R   N=          68
  1.00000000E+00  1.00000000E+00  1.00000000E+00  1.00000000E+00  1.00000000E+00
  1.00000000E+00  0.00000000E+00  0.00000000E+00  1.00000000E+00  0.00000000E+00
  0.00000000E+00  0.00000000E+00  1.00000000E+00  0.00000000E+00  0.00000000E+00
  0.00000000E+00  1.00000000E+00  2.00000000E+00  0.00000000E+00  0.00000000E+00
  2.00000000E+00  0.00000000E+00  0.00000000E+00  0.00000000E+00  1.00000000E+00
  0.00000000E+00  0.00000000E+00  0.00000000E+00  1.00000000E+00  1.00000000E+00
  1.00000000E+00  1.00000000E+00  1.00000000E+00  2.00000000E+00  0.00000000E+00
  0.00000000E+00  2.00000000E+00  1.00000000E+00  0.00000000E+00  0.00000000E+00
  1.00000000E+00  1.00000000E+00  1.00000000E+00  1.00000000E+00  1.00000000E+00
  0.00000000E+00  0.00000000E+00  0.00000000E+00  1.00000000E+00  0.00000000E+00
  0.00000000E+00  0.00000000E+00  1.00000000E+00  0.00000000E+00  0.00000000E+00
  0.00000000E+00  1.00000000E+00  0.00000000E+00  0.00000000E+00  0.00000000E+00
  1.00000000E+00  0.00000000E+00  0.00000000E+00  0.00000000E+00  1.00000000E+00
  0.00000000E+00  0.00000000E+00  0.00000000E+00
Virial Ratio                               R      2.004856075278774E+00
SCF Energy                                 R     -7.230714310147591E+02
Total Energy                               R     -7.230714310147591E+02
RMS Force                                  R      3.985393658817552E-04
RMS Density                                R      3.730301674474806E-09
External E-field                           R   N=          35
  0.00000000E+00  0.00000000E+00  0.00000000E+00  0.00000000E+00  0.00000000E+00
  0.00000000E+00  0.00000000E+00  0.00000000E+00  0.00000000E+00  0.00000000E+00
  0.00000000E+00  0.00000000E+00  0.00000000E+00  0.00000000E+00  0.00000000E+00
  0.00000000E+00  0.00000000E+00  0.00000000E+00  0.00000000E+00  0.00000000E+00
  0.00000000E+00  0.00000000E+00  0.00000000E+00  0.00000000E+00  0.00000000E+00
  0.00000000E+00  0.00000000E+00  0.00000000E+00  0.00000000E+00  0.00000000E+00
  0.00000000E+00  0.00000000E+00  0.00000000E+00  0.00000000E+00  0.00000000E+00
IOpCl                                      I                0
IROHF                                      I                0
Alpha Orbital Energies                     R   N=         139
 -8.90362737E+01 -1.92838470E+01 -1.45275961E+01 -1.02570985E+01 -1.02437093E+01
 -1.02421162E+01 -1.02305347E+01 -1.02283721E+01 -8.03813992E+00 -5.98022484E+00
 -5.97523876E+00 -5.97174238E+00 -1.21341361E+00 -8.49400444E-01 -8.00310485E-01
 -7.58077822E-01 -7.34053124E-01 -6.81194691E-01 -6.07762033E-01 -5.31228196E-01
 -5.01425391E-01 -4.95292630E-01 -4.93081455E-01 -4.54440618E-01 -4.50485721E-01
 -4.42053894E-01 -4.38399798E-01 -4.28640717E-01 -4.28272867E-01 -4.23384084E-01
 -3.65860109E-01 -2.82209273E-01 -2.67456941E-01 -2.64932878E-01 -2.55940476E-01
 -8.09145742E-02  1.61190950E-02  5.44682127E-02  5.77483495E-02  6.15597901E-02
  8.50402986E-02  9.11718606E-02  1.19221639E-01  1.32601959E-01  1.45257157E-01
  1.48823613E-01  1.81721176E-01  1.83513899E-01  2.06052783E-01  2.29835547E-01
  2.45547328E-01  2.90618893E-01  2.91967152E-01  3.39304927E-01  3.81031293E-01
  4.13697275E-01  4.30304399E-01  4.60707672E-01  4.79423164E-01  4.98430102E-01
  5.24642464E-01  5.36551933E-01  5.60689843E-01  5.76203421E-01  5.87658666E-01
  5.96159175E-01  6.14503229E-01  6.49402560E-01  6.74240173E-01  6.77645448E-01
  6.83150337E-01  6.94050382E-01  7.00328974E-01  7.05144735E-01  7.06891685E-01
  7.09493087E-01  7.13063116E-01  7.26793922E-01  7.34594569E-01  7.48901203E-01
  7.57480016E-01  7.60490932E-01  7.83780089E-01  7.95608542E-01  8.20598111E-01
  8.59637724E-01  8.71362844E-01  9.11741673E-01  9.42734822E-01  9.46773078E-01
  9.92815107E-01  1.01753035E+00  1.09244049E+00  1.10767868E+00  1.14018505E+00
  1.18081486E+00  1.22003373E+00  1.25910341E+00  1.36067775E+00  1.36354111E+00
  1.37487915E+00  1.55147961E+00  1.55477796E+00  1.69030991E+00  1.69774505E+00
  1.71203078E+00  1.73830098E+00  1.89915668E+00  1.90489605E+00  1.91335388E+00
  1.97684256E+00  1.98808583E+00  1.99953346E+00  2.01341947E+00  2.07174949E+00
  2.11490013E+00  2.13376422E+00  2.14494572E+00  2.16238020E+00  2.19082523E+00
  2.22330334E+00  2.23487606E+00  2.23800176E+00  2.34710276E+00  2.64292391E+00
  2.65760429E+00  2.68119451E+00  2.78216742E+00  2.86228756E+00  2.86324889E+00
  3.21510144E+00  3.24363597E+00  3.57223131E+00  3.66058047E+00  4.63822092E+00
  4.65116391E+00  4.71035207E+00  4.79255341E+00  4.94536870E+00
Alpha MO coefficients                      R   N=       19321
  5.09408444E-05 -3.24251381E-04  3.11547523E-03 -4.05954777E-05 -3.99364448E-06
  1.40647974E-04 -4.64230049E-05 -1.03157575E-04 -1.22397685E-03 -3.54514778E-04
  1.22205170E-04  9.72328633E-06  4.78704171E-08 -3.76477267E-06  9.94250701E-01
 -2.17356500E-02  1.04263997E-02 -8.38879047E-03 -1.11548808E-04 -5.12137850E-05
  1.21564690E-04 -4.40018511E-04 -1.43932955E-04  4.56878416E-04  1.08151458E-03
  3.95022140E-04 -1.77453133E-03 -1.36492670E-04  5.55781814E-05  4.21528115E-06
 -1.92392108E-05 -8.32059362E-05  2.59433020E-05 -1.44211868E-05 -3.57562171E-06
  4.95358138E-06  1.56592505E-05 -1.40057178E-04 -2.39254797E-04 -2.53967046E-04
  1.61602188E-04 -4.17536465E-05 -2.17020372E-04  1.44886158E-03 -4.54800529E-06
 -9.64175794E-06  6.92282338E-06 -1.23928775E-04 -5.72435954E-05  2.00730547E-04
  1.19396005E-04 -1.27751010E-04 -1.30195162E-04 -4.79330603E-06 -2.74445222E-04
 -2.15534285E-05 -1.90735015E-04 -5.12384113E-05 -7.04167211E-05 -8.31252130E-05
 -3.39096329E-05  1.52918611E-04  2.17839961E-04  2.48036936E-04 -7.57750296E-06
  9.76907240E-06  1.41440823E-05 -2.91959956E-06  4.21447352E-05 -1.61095160E-04
 -2.89993482E-04  7.95274179E-06 -1.17068670E-04 -1.06138480E-03 -2.98222085E-05
 -4.62186434E-05  1.05909799E-05 -1.69856980E-04 -2.44032521E-04  3.25257889E-05
 -3.89118425E-07 -3.42211983E-06 -5.89850284E-07  3.99687196E-06  2.05819403E-07
  2.03737427E-05 -2.60063246E-04 -3.73733814E-03 -1.76140039E-05  1.73715998E-05
  1.86030664E-06 -1.71766820E-03 -2.03052170E-03  5.73622978E-04 -4.21347394E-06
  7.45533391E-06  2.47309867E-06 -2.95864935E-05 -1.06701525E-05  1.85759395E-05
 -1.64294176E-04  3.53448357E-03 -1.09115696E-04  1.26259338E-04  2.88986313E-05
 -1.62926767E-03 -2.74811337E-03  4.93456662E-04 -6.48410605E-05 -1.59289439E-05
 -1.85884778E-05 -5.86689682E-05  1.70214298E-05  2.97891014E-06 -2.33067224E-05
  1.46543300E-03 -1.04363399E-04  9.95901646E-05 -4.67781017E-06  1.30925420E-05
 -9.60352354E-04  2.15208706E-04  4.26098024E-05 -2.04851836E-06 -3.54799558E-06
  4.84089062E-05  4.91288505E-05  1.91997081E-05  1.15962659E-04  1.36258719E-05
  1.03099766E-04  4.23783994E-06  1.25337318E-04 -2.23807245E-04 -2.39722691E-05
  1.30224553E-04  2.09276670E-04 -2.36094446E-04  1.58581274E-04 -4.44176833E-05
  4.71647966E-04 -9.42158027E-04 -1.20472382E-04 -7.45735467E-05 -2.47626247E-04
 -4.93966566E-05 -1.97584033E-04  2.17994785E-03 -1.70427135E-04  1.55127049E-05
 -5.04036473E-05  2.75609486E-05 -3.48098902E-05 -1.27930146E-05 -1.08650400E-04
  4.07270565E-05  2.95259660E-03 -7.20777144E-05 -6.09083103E-05 -5.44242800E-06
 -3.59838170E-04 -3.07678197E-04 -1.04445007E-04 -6.03351246E-04 -4.43222987E-04
  1.87199621E-03 -1.85154362E-04 -1.77231719E-04 -1.68769376E-04  1.38226495E-05
  2.41211491E-04  2.98758451E-05  2.73038734E-05  2.81384999E-05 -7.05782576E-07
 -2.16364364E-05  1.45605931E-05 -5.10176382E-05 -1.44898282E-04 -1.16101606E-04
  4.15919972E-04  1.46017930E-03 -1.40582935E-02  6.57387433E-04  5.19403229E-04
 -1.04471723E-03  3.74745968E-03  2.75238375E-03 -6.27733792E-03  2.77544197E-04
 -1.04492659E-03 -9.54557751E-04  9.29231928E-05  6.07596046E-04  9.89008653E-01
 -3.98499659E-02  2.78488698E-02 -1.61174047E-03 -1.54763055E-03  1.80077256E-03
  4.39425887E-03  4.32721654E-03 -4.81813413E-03 -1.58030187E-04  2.68490745E-04
  2.00546331E-04 -3.61426423E-05 -1.23302700E-04  3.02628830E-04 -2.20711247E-03
 -2.53307040E-05  3.37747779E-04 -5.02129133E-03  2.37584630E-04 -1.91194518E-04
  2.07620213E-07 -2.19493624E-03 -5.65617421E-04  3.01552455E-04 -8.07430687E-05
 -4.48387610E-05  1.33495671E-05  1.03354161E-04 -9.32131988E-05 -9.90011267E-07
 -1.56662188E-04 -5.76319389E-03  1.25431389E-04 -9.83725121E-05 -1.10022315E-05
 -4.27328126E-03 -5.20926404E-03  1.31068097E-03  2.42976966E-05  2.74057410E-05
  7.74445470E-06 -9.81797079E-05 -6.92224124E-05 -6.03876641E-06  1.67050278E-04
  8.49701822E-03 -6.23408324E-05  1.53308148E-04 -1.05214663E-05 -2.70746256E-03
 -4.59788094E-03  1.03032308E-03 -5.09727615E-05 -1.16792374E-05 -2.83431553E-05
 -4.43874664E-05  5.59915604E-05 -2.56566176E-05  4.30315541E-04  1.15292323E-03