                                                                        
SP        RPBE1PBE                                                    Gen                 
Number of atoms                            I               11
Info1-9                                    I   N=           9
         224         224           0           0           0         110
           1          18        -302
Charge                                     I                0
Multiplicity                               I                1
Number of electrons                        I               72
Number of alpha electrons                  I               36
Number of beta electrons                   I               36
Number of basis functions                  I              127
Number of independent functions            I              127
Number of point charges in /Mol/           I                0
Number of translation vectors              I                0
Atomic numbers                             I   N=          11
           6          16           7           8           1           1
           1           9           5           9           9
Nuclear charges                            R   N=          11
  6.00000000E+00  1.60000000E+01  7.00000000E+00  8.00000000E+00  1.00000000E+00
  1.00000000E+00  1.00000000E+00  9.00000000E+00  5.00000000E+00  9.00000000E+00
  9.00000000E+00
Current cartesian coordinates              R   N=          33
 -5.06172593E+00  2.19259254E+00  0.00000000E+00 -4.48439570E+00 -1.13360891E+00
  0.00000000E+00 -1.31222583E+00 -1.42048824E+00 -1.88972613E-05 -4.10259543E-02
  4.69030026E-01 -3.77945227E-05 -6.12862751E+00  2.72273631E+00  1.70734866E+00
 -6.12798501E+00  2.72286859E+00 -1.70768881E+00 -3.20316138E+00  3.14673416E+00
  3.77945227E-04  4.10246315E+00  1.32110754E+00 -2.15753812E+00  3.71484253E+00
  9.52610944E-02  0.00000000E+00  4.10238756E+00  1.32072959E+00  2.15778378E+00
  3.85292482E+00 -2.40798352E+00 -2.26767136E-04
Force Field                                I                0
Int Atom Types                             I   N=          11
           0           0           0           0           0           0
           0           0           0           0           0
MM charges                                 R   N=          11
  0.00000000E+00  0.00000000E+00  0.00000000E+00  0.00000000E+00  0.00000000E+00
  0.00000000E+00  0.00000000E+00  0.00000000E+00  0.00000000E+00  0.00000000E+00
  0.00000000E+00
Integer atomic weights                     I   N=          11
          12          32          14          16           1           1
           1          19          11          19          19
Real atomic weights                        R   N=          11
  1.20000000E+01  3.19720718E+01  1.40030740E+01  1.59949146E+01  1.00782504E+00
  1.00782504E+00  1.00782504E+00  1.89984032E+01  1.10093053E+01  1.89984032E+01
  1.89984032E+01
Atom fragment info                         I   N=          11
           0           0           0           0           0           0
           0           0           0           0           0
Atom residue num                           I   N=          11
           0           0           0           0           0           0
           0           0           0           0           0
Nuclear spins                              I   N=          11
           0           0           2           0           1           1
           1           1           3           1           1
Nuclear ZEff                               R   N=          11
 -3.60000000E+00 -1.36000000E+01 -4.55000000E+00 -5.60000000E+00 -1.00000000E+00
 -1.00000000E+00 -1.00000000E+00 -6.75000000E+00 -2.75000000E+00 -6.75000000E+00
 -6.75000000E+00
Nuclear QMom                               R   N=          11
  0.00000000E+00  0.00000000E+00  2.04400000E+00  0.00000000E+00  0.00000000E+00
  0.00000000E+00  0.00000000E+00  0.00000000E+00  4.05900000E+00  0.00000000E+00
  0.00000000E+00
Nuclear GFac                               R   N=          11
  0.00000000E+00  0.00000000E+00  4.03761000E-01  0.00000000E+00  2.79284600E+00
  2.79284600E+00  2.79284600E+00  2.62886700E+00  2.68863700E+00  2.62886700E+00
  2.62886700E+00
MicOpt                                     I   N=          11
          -1          -1          -1          -1          -1          -1
          -1          -1          -1          -1          -1
Number of contracted shells                I               57
Number of primitive shells                 I              115
Pure/Cartesian d shells                    I                0
Pure/Cartesian f shells                    I                0
Highest angular momentum                   I                2
Largest degree of contraction              I                5
Shell types                                I   N=          57
           0           0           0           1           1          -2
           0           0           0           0           1           1
           1          -2          -2           0           0           0
           1           1          -2           0           0           0
           1           1          -2           0           0           0
           0           0           0           0           0           0
           1           1          -2           0           0           0
           1           1          -2           0           0           0
           1           1          -2           0           0           0
           1           1          -2
Number of primitives per shell             I   N=          57
           5           1           1           3           1           1
           5           3           1           1           5           1
           1           1           1           5           1           1
           3           1           1           5           1           1
           3           1           1           3           1           3
           1           3           1           5           1           1
           3           1           1           5           1           1
           3           1           1           5           1           1
           3           1           1           5           1           1
           3           1           1
Shell to atom map                          I   N=          57
           1           1           1           1           1           1
           2           2           2           2           2           2
           2           2           2           3           3           3
           3           3           3           4           4           4
           4           4           4           5           5           6
           6           7           7           8           8           8
           8           8           8           9           9           9
           9           9           9          10          10          10
          10          10          10          11          11          11
          11          11          11
Primitive exponents                        R   N=         115
  1.23840169E+03  1.86290050E+02  4.22511763E+01  1.16765579E+01  3.59305065E+00
  4.02451474E-01  1.30901827E-01  9.46809706E+00  2.01035451E+00  5.47710047E-01
  1.52686138E-01  8.00000000E-01  9.18493030E+03  1.38151055E+03  3.13871476E+02
  8.80538706E+01  2.70399149E+01  4.56487313E+01  4.96645223E+00  2.01162420E+00
  3.56610770E-01  1.35072215E-01  2.61982334E+02  6.13068947E+01  1.91037299E+01
  6.65677204E+00  2.39596352E+00  6.17761617E-01  1.69933769E-01  5.50000000E-01
  2.99400000E+00  1.71284159E+03  2.57648127E+02  5.84582459E+01  1.61983679E+01
  5.00526008E+00  5.87318566E-01  1.87645923E-01  1.35714702E+01  2.92573729E+00
  7.99277508E-01  2.19543480E-01  1.00000000E+00  2.26617678E+03  3.40870102E+02
  7.73631352E+01  2.14796449E+01  6.65894331E+00  8.09759757E-01  2.55307722E-01
  1.77215043E+01  3.86355054E+00  1.04809209E+00  2.76415444E-01  1.20000000E+00
  1.30107010E+01  1.96225720E+00  4.44537960E-01  1.21949620E-01  1.30107010E+01
  1.96225720E+00  4.44537960E-01  1.21949620E-01  1.30107010E+01  1.96225720E+00
  4.44537960E-01  1.21949620E-01  2.89483260E+03  4.35419391E+02  9.88433289E+01
  2.74851980E+01  8.54054982E+00  1.06545780E+00  3.32473467E-01  2.26966339E+01
  4.98723393E+00  1.34916140E+00  3.48298820E-01  1.40000000E+00  8.39318301E+02
  1.26264648E+02  2.86206008E+01  7.87937227E+00  2.40888572E+00  2.51051090E-01
  8.36488661E-02  6.03322236E+00  1.24991579E+00  3.38716764E-01  9.64156324E-02
  5.00000000E-01  2.89483260E+03  4.35419391E+02  9.88433289E+01  2.74851980E+01
  8.54054982E+00  1.06545780E+00  3.32473467E-01  2.26966339E+01  4.98723393E+00
  1.34916140E+00  3.48298820E-01  1.40000000E+00  2.89483260E+03  4.35419391E+02
  9.88433289E+01  2.74851980E+01  8.54054982E+00  1.06545780E+00  3.32473467E-01
  2.26966339E+01  4.98723393E+00  1.34916140E+00  3.48298820E-01  1.40000000E+00
Contraction coefficients                   R   N=         115
  5.51736505E-03  4.10888286E-02  1.82253821E-01  4.68284594E-01  4.45758173E-01
  1.00000000E+00  1.00000000E+00  5.68883320E-02  3.12940593E-01  7.60650165E-01
  1.00000000E+00  1.00000000E+00 -5.47294661E-03 -4.09544022E-02 -1.84758290E-01
 -4.75672806E-01 -4.34951536E-01 -9.19040458E-02  5.56987772E-01  5.11154683E-01
  1.00000000E+00  1.00000000E+00 -9.18305466E-03 -6.59022265E-02 -2.45877845E-01
 -4.82314711E-01 -3.89563144E-01  1.00000000E+00  1.00000000E+00  1.00000000E+00
  1.00000000E+00 -5.44779958E-03 -4.06271746E-02 -1.81119623E-01 -4.68439756E-01
 -4.46168463E-01  1.00000000E+00  1.00000000E+00 -5.88481170E-02 -3.20246248E-01
 -7.53282265E-01  1.00000000E+00  1.00000000E+00 -5.38935039E-03 -4.02347214E-02
 -1.80081842E-01 -4.68288577E-01 -4.46926172E-01  1.00000000E+00  1.00000000E+00
  6.26302488E-02  3.33311385E-01  7.41486383E-01  1.00000000E+00  1.00000000E+00
  3.34854848E-02  2.34721871E-01  8.13770285E-01  1.00000000E+00  3.34854848E-02
  2.34721871E-01  8.13770285E-01  1.00000000E+00  3.34854848E-02  2.34721871E-01
  8.13770285E-01  1.00000000E+00 -5.34932118E-03 -3.99677344E-02 -1.79412618E-01
 -4.68324687E-01 -4.47241605E-01  1.00000000E+00  1.00000000E+00 -6.47821482E-02
 -3.40357854E-01 -7.34858154E-01  1.00000000E+00  1.00000000E+00 -5.62888360E-03
 -4.18327946E-02 -1.84174881E-01 -4.68396550E-01 -4.44579309E-01  1.00000000E+00
  1.00000000E+00 -5.40325003E-02 -3.01940344E-01 -7.71707917E-01  1.00000000E+00
  1.00000000E+00 -5.34932118E-03 -3.99677344E-02 -1.79412618E-01 -4.68324687E-01
 -4.47241605E-01  1.00000000E+00  1.00000000E+00 -6.47821482E-02 -3.40357854E-01
 -7.34858154E-01  1.00000000E+00  1.00000000E+00 -5.34932118E-03 -3.99677344E-02
 -1.79412618E-01 -4.68324687E-01 -4.47241605E-01  1.00000000E+00  1.00000000E+00
 -6.47821482E-02 -3.40357854E-01 -7.34858154E-01  1.00000000E+00  1.00000000E+00
Coordinates of each shell                  R   N=         171
 -5.06172495E+00  2.19259351E+00  3.14954355E-06 -5.06172495E+00  2.19259351E+00
  3.14954355E-06 -5.06172495E+00  2.19259351E+00  3.14954355E-06 -5.06172495E+00
  2.19259351E+00  3.14954355E-06 -5.06172495E+00  2.19259351E+00  3.14954355E-06
 -5.06172495E+00  2.19259351E+00  3.14954355E-06 -4.48439501E+00 -1.13360799E+00
  3.14954355E-06 -4.48439501E+00 -1.13360799E+00  3.14954355E-06 -4.48439501E+00
 -1.13360799E+00  3.14954355E-06 -4.48439501E+00 -1.13360799E+00  3.14954355E-06
 -4.48439501E+00 -1.13360799E+00  3.14954355E-06 -4.48439501E+00 -1.13360799E+00
  3.14954355E-06 -4.48439501E+00 -1.13360799E+00  3.14954355E-06 -4.48439501E+00
 -1.13360799E+00  3.14954355E-06 -4.48439501E+00 -1.13360799E+00  3.14954355E-06
 -1.31222516E+00 -1.42048760E+00 -1.57477178E-05 -1.31222516E+00 -1.42048760E+00
 -1.57477178E-05 -1.31222516E+00 -1.42048760E+00 -1.57477178E-05 -1.31222516E+00
 -1.42048760E+00 -1.57477178E-05 -1.31222516E+00 -1.42048760E+00 -1.57477178E-05
 -1.31222516E+00 -1.42048760E+00 -1.57477178E-05 -4.10251257E-02  4.69030555E-01
 -3.46449791E-05 -4.10251257E-02  4.69030555E-01 -3.46449791E-05 -4.10251257E-02
  4.69030555E-01 -3.46449791E-05 -4.10251257E-02  4.69030555E-01 -3.46449791E-05
 -4.10251257E-02  4.69030555E-01 -3.46449791E-05 -4.10251257E-02  4.69030555E-01
 -3.46449791E-05 -6.12862649E+00  2.72273737E+00  1.70735181E+00 -6.12862649E+00
  2.72273737E+00  1.70735181E+00 -6.12798398E+00  2.72286965E+00 -1.70768566E+00
 -6.12798398E+00  2.72286965E+00 -1.70768566E+00 -3.20316032E+00  3.14673497E+00
  3.81094770E-04 -3.20316032E+00  3.14673497E+00  3.81094770E-04  4.10246406E+00
  1.32110770E+00 -2.15753497E+00  4.10246406E+00  1.32110770E+00 -2.15753497E+00
  4.10246406E+00  1.32110770E+00 -2.15753497E+00  4.10246406E+00  1.32110770E+00
 -2.15753497E+00  4.10246406E+00  1.32110770E+00 -2.15753497E+00  4.10246406E+00
  1.32110770E+00 -2.15753497E+00  3.71484333E+00  9.52612924E-02  3.14954355E-06
  3.71484333E+00  9.52612924E-02  3.14954355E-06  3.71484333E+00  9.52612924E-02
  3.14954355E-06  3.71484333E+00  9.52612924E-02  3.14954355E-06  3.71484333E+00
  9.52612924E-02  3.14954355E-06  3.71484333E+00  9.52612924E-02  3.14954355E-06
  4.10238847E+00  1.32072976E+00  2.15778693E+00  4.10238847E+00  1.32072976E+00
  2.15778693E+00  4.10238847E+00  1.32072976E+00  2.15778693E+00  4.10238847E+00
  1.32072976E+00  2.15778693E+00  4.10238847E+00  1.32072976E+00  2.15778693E+00
  4.10238847E+00  1.32072976E+00  2.15778693E+00  3.85292539E+00 -2.40798334E+00
 -2.23617592E-04  3.85292539E+00 -2.40798334E+00 -2.23617592E-04  3.85292539E+00
 -2.40798334E+00 -2.23617592E-04  3.85292539E+00 -2.40798334E+00 -2.23617592E-04
  3.85292539E+00 -2.40798334E+00 -2.23617592E-04  3.85292539E+00 -2.40798334E+00
 -2.23617592E-04
Constraint Structure                       R   N=          33
 -5.06172495E+00  2.19259351E+00  3.14954355E-06 -4.48439501E+00 -1.13360799E+00
  3.14954355E-06 -1.31222516E+00 -1.42048760E+00 -1.57477178E-05 -4.10251257E-02
  4.69030555E-01 -3.46449791E-05 -6.12862649E+00  2.72273737E+00  1.70735181E+00
 -6.12798398E+00  2.72286965E+00 -1.70768566E+00 -3.20316032E+00  3.14673497E+00
  3.81094770E-04  4.10246406E+00  1.32110770E+00 -2.15753497E+00  3.71484333E+00
  9.52612924E-02  3.14954355E-06  4.10238847E+00  1.32072976E+00  2.15778693E+00
  3.85292539E+00 -2.40798334E+00 -2.23617592E-04
Num ILSW                                   I              100
ILSW                                       I   N=         100
           0           0           0           0           2           0
           0           0           0           0        1009          -1
           0           0           0           0           0           0
           0           0           0           0           0           0
           1           0           0           0           0           0
           0           0      100000           0          -1           0
           0           0           0           0           0           0
           0           0           0           1           0           0
           0           0           1           0           0           0
           0           0           4          40           0           0
           0           0          13           0           0           0
           0           0           0           0           0           0
           0           0           0           0           0           0
           0           0           0           0           0           0
           0           0           0           0           0           0
           0           0           0           0           0           0
           0           0           0           0
Num RLSW                                   I               40
RLSW                                       R   N=          40
  7.50000000E-01  7.50000000E-01  1.00000000E+00  1.00000000E+00  2.50000000E-01
  0.00000000E+00  0.00000000E+00  1.00000000E+00  0.00000000E+00  0.00000000E+00
  0.00000000E+00  0.00000000E+00  1.00000000E+00  0.00000000E+00  0.00000000E+00
  0.00000000E+00  0.00000000E+00  1.00000000E+00  0.00000000E+00  0.00000000E+00
  0.00000000E+00  0.00000000E+00  1.00000000E+00  0.00000000E+00  0.00000000E+00
  0.00000000E+00  0.00000000E+00  1.00000000E+00  0.00000000E+00  0.00000000E+00
  0.00000000E+00  0.00000000E+00  1.00000000E+00  0.00000000E+00  0.00000000E+00
  0.00000000E+00  0.00000000E+00  0.00000000E+00  1.00000000E+00  1.00000000E+00
MxBond                                     I                4
NBond                                      I   N=          11
           4           2           2           1           1           1
           1           1           3           1           1
IBond                                      I   N=          44
           2           5           6           7           1           3
           0           0           2           4           0           0
           3           0           0           0           1           0
           0           0           1           0           0           0
           1           0           0           0           9           0
           0           0           8          10          11           0
           9           0           0           0           9           0
           0           0
RBond                                      R   N=          44
  1.00000000E+00  1.00000000E+00  1.00000000E+00  1.00000000E+00  1.00000000E+00
  1.00000000E+00  0.00000000E+00  0.00000000E+00  1.00000000E+00  2.00000000E+00
  0.00000000E+00  0.00000000E+00  2.00000000E+00  0.00000000E+00  0.00000000E+00
  0.00000000E+00  1.00000000E+00  0.00000000E+00  0.00000000E+00  0.00000000E+00
  1.00000000E+00  0.00000000E+00  0.00000000E+00  0.00000000E+00  1.00000000E+00
  0.00000000E+00  0.00000000E+00  0.00000000E+00  1.00000000E+00  0.00000000E+00
  0.00000000E+00  0.00000000E+00  1.00000000E+00  1.00000000E+00  1.00000000E+00
  0.00000000E+00  1.00000000E+00  0.00000000E+00  0.00000000E+00  0.00000000E+00
  1.00000000E+00  0.00000000E+00  0.00000000E+00  0.00000000E+00
Virial Ratio                               R      2.003948903167229E+00
SCF Energy                                 R     -8.914153490692199E+02
Total Energy                               R     -8.914153490692199E+02
RMS Density                                R      4.706557790696031E-09
External E-field                           R   N=          35
  0.00000000E+00  0.00000000E+00  0.00000000E+00  0.00000000E+00  0.00000000E+00
  0.00000000E+00  0.00000000E+00  0.00000000E+00  0.00000000E+00  0.00000000E+00
  0.00000000E+00  0.00000000E+00  0.00000000E+00  0.00000000E+00  0.00000000E+00
  0.00000000E+00  0.00000000E+00  0.00000000E+00  0.00000000E+00  0.00000000E+00
  0.00000000E+00  0.00000000E+00  0.00000000E+00  0.00000000E+00  0.00000000E+00
  0.00000000E+00  0.00000000E+00  0.00000000E+00  0.00000000E+00  0.00000000E+00
  0.00000000E+00  0.00000000E+00  0.00000000E+00  0.00000000E+00  0.00000000E+00
IOpCl                                      I                0
IROHF                                      I                0
Alpha Orbital Energies                     R   N=         127
 -8.83552851E+01 -2.44840090E+01 -2.44840073E+01 -2.44835731E+01 -1.91201168E+01
 -1.44304589E+01 -1.01926133E+01 -8.60262932E+00 -6.86402376E+00 -6.02212734E+00
 -6.02000121E+00 -6.01763434E+00 -1.19076592E+00 -1.08107156E+00 -1.07781812E+00
 -1.07780510E+00 -9.41126709E-01 -9.41123044E-01 -9.39646435E-01 -7.78992447E-01
 -7.57260539E-01 -6.96675455E-01 -6.85959513E-01 -5.74938653E-01 -5.74936715E-01
 -5.72795455E-01 -5.51757371E-01 -5.14146028E-01 -4.71752282E-01 -4.13699308E-01
 -4.13697684E-01 -4.13426370E-01 -4.12251630E-01 -4.12249909E-01 -4.12231193E-01
 -3.05040142E-01 -1.26892210E-01  1.93921965E-02  1.20619635E-01  1.58032137E-01
  4.11877557E-01  4.11891662E-01  4.12349655E-01  4.51909248E-01  4.51918854E-01
  4.52481617E-01  4.91512286E-01  2.95149618E-01  2.95151494E-01  3.44811354E-01
  5.70197115E-01  5.74868169E-01  5.96263919E-01  6.30825565E-01  6.46338729E-01
  6.47654338E-01  6.53019317E-01  6.73501576E-01  7.07504955E-01  7.37034851E-01
  7.46566091E-01  8.05060900E-01  8.16182703E-01  8.85803311E-01  9.86303534E-01
  1.00385817E+00  1.02176666E+00  1.09167964E+00  1.12206362E+00  1.12290492E+00
  1.12787355E+00  1.14469664E+00  1.15203310E+00  1.17836769E+00  1.20233766E+00
  1.23201989E+00  1.26732547E+00  1.30422672E+00  1.31870186E+00  1.33144900E+00
  1.34909165E+00  1.38883782E+00  1.38884429E+00  1.41310019E+00  1.42239928E+00
  1.46234489E+00  1.46234557E+00  1.71620120E+00  1.76933186E+00  1.82927615E+00
  1.84640175E+00  1.00000000E+03  1.00000000E+03  1.00000000E+03  1.00000000E+03
  1.00000000E+03  1.00000000E+03  1.00000000E+03  1.00000000E+03  1.00000000E+03
  1.00000000E+03  1.00000000E+03  1.00000000E+03  1.00000000E+03  1.00000000E+03
  1.00000000E+03  1.00000000E+03  1.00000000E+03  1.00000000E+03  1.00000000E+03
  1.00000000E+03  1.00000000E+03  1.00000000E+03  1.00000000E+03  1.00000000E+03
  1.00000000E+03  1.00000000E+03  1.00000000E+03  1.00000000E+03  1.00000000E+03
  1.00000000E+03  1.00000000E+03  1.00000000E+03  1.00000000E+03  1.00000000E+03
  1.00000000E+03  1.00000000E+03
Alpha MO coefficients                      R   N=       16129
  1.44591911E-05 -2.80352450E-04  1.56455622E-03  5.47239464E-05 -3.02012292E-04
 -4.61261055E-09  3.92618888E-04 -1.12574337E-03  3.47157610E-08  8.01205167E-08
  2.91268408E-12  1.22335713E-12  1.46240764E-07  4.09459571E-08  1.01848074E+00
  7.30510884E-02  1.74668340E-02 -7.37437922E-03 -2.25631602E-06 -2.45050478E-05
  9.60483566E-11  1.40870096E-06  2.50108719E-05  3.11022724E-10 -4.85839169E-04
 -1.04696338E-03 -2.89237608E-10  2.85871071E-09  6.63981677E-11  5.84433367E-12
 -1.32192303E-06 -2.04880646E-07 -8.91873153E-09  8.03480287E-12 -9.41071658E-13
 -1.93714382E-07 -3.96305212E-08 -4.99270253E-05 -2.69943577E-04  9.52902833E-04
  1.28303224E-04  2.33855831E-05 -1.89160955E-11 -6.51653133E-04  2.38185745E-04
  3.97638565E-09 -1.08160824E-07  2.30461920E-12 -1.27582060E-12  1.27835704E-07
 -3.86395023E-08  2.76237041E-05  1.46906100E-04 -1.55987871E-04  4.75720089E-05
 -6.95359875E-05 -2.79463471E-09  1.67758221E-04 -1.55744220E-05  2.99048295E-09
  6.34135874E-10 -5.35518639E-14 -6.79778739E-13 -1.91736673E-08 -2.06956100E-08
  4.79629086E-05  6.46815843E-05  4.79630001E-05  6.47081542E-05 -8.80097950E-07
 -9.52745792E-05  1.56901271E-06  5.84401695E-06  4.99934225E-06 -4.44268077E-06
 -2.49428482E-06 -3.85859714E-06  3.82511126E-06  2.15729178E-06  3.31554345E-06
  5.71210502E-10 -4.08242136E-10  9.82041477E-10 -2.40311196E-10 -3.46355009E-11
  3.88537077E-07 -9.77850942E-06 -3.09554012E-07  6.59064801E-06  2.19800115E-05
 -1.94934237E-10 -1.48472997E-05 -2.36812081E-05  1.77697803E-10  4.12645940E-09
 -1.24247575E-12  6.12767093E-14 -3.24614289E-09  1.18840643E-08  1.56846982E-06
  5.84213654E-06  4.99772700E-06 -4.44272142E-06 -2.49559580E-06  3.85765107E-06
  3.82515289E-06  2.15842321E-06 -3.31473661E-06  5.71154889E-10  4.07820215E-10
 -9.82019875E-10 -2.40478364E-10 -3.49722010E-11  8.59178008E-08 -3.25889708E-06
 -2.73884829E-06  9.60093451E-06  3.36678823E-06  2.25653099E-10 -8.28415478E-06
 -2.87716197E-06 -1.92618211E-10 -3.13530649E-09 -1.62100797E-13  3.78443754E-13
  7.15664421E-10  2.48798742E-10  9.42451196E-07 -4.64152736E-06  5.67214530E-05
 -3.40028267E-06  1.03337466E-05  5.18391013E-06  1.81389329E-05  3.14302079E-05
  8.09594961E-06  1.96127857E-07  1.23441337E-07  3.62187487E-07  3.71266044E-07
  3.21081096E-08  8.03663611E-08 -2.31475536E-06  2.97038328E-05  1.99230263E-05
 -4.31700730E-06  1.07639141E-07  2.80589124E-06  5.79748281E-06  3.82823238E-06
  1.62347344E-06  2.72014294E-06  1.12724670E-05  2.16184277E-05  2.71676633E-07
  3.55021067E-06  1.30036531E-07  8.04641047E-07  9.32259059E-07 -1.16194246E-07
 -8.52565945E-07 -4.96655692E-08 -9.88081868E-08 -1.28764535E-07 -2.75992708E-05
 -1.88398118E-04 -1.89347999E-04 -1.89480727E-05  1.64131000E-04 -2.13066600E-05
  4.23373408E-05 -2.61706411E-04 -2.30284456E-05  2.13451655E-06 -6.49587302E-07
  2.18274525E-06  2.42530762E-06 -1.92518008E-06 -1.36511686E-04 -1.67809734E-04
 -2.45467949E-04 -7.19559358E-04 -3.31305421E-04 -5.87137188E-04 -8.37568012E-04
 -3.96210881E-04 -6.78119729E-04  4.39505146E-09 -5.71674465E-06  7.74632795E-07
 -3.28425339E-06  1.15510672E-07 -7.35345710E-06 -8.47971578E-06 -4.50049701E-07
  1.93463974E-06 -3.65343853E-05 -8.33767126E-05 -3.86639351E-05  1.90922648E-04
  5.02937116E-05  1.94996654E-04  6.58844860E-04  1.00619244E-03 -1.56679691E-04
 -5.99939716E-04 -9.69529009E-04 -7.18912695E-06  3.61446181E-06  4.19013760E-06
  2.59734003E-06 -2.71318240E-06  1.71023397E-03  3.94416987E-04  2.81704577E-04
 -4.10157739E-04 -1.87272547E-03 -3.24257426E-03  2.28375639E-04  1.39790550E-03
  2.39717503E-03  8.51380562E-05  3.02005917E-05  7.98059930E-05 -5.24934627E-05
  1.89724137E-05  1.01650481E+00  2.83422998E-02  6.36152652E-02 -5.75243496E-05
 -1.78420712E-04 -3.15012736E-04  1.15341362E-04  3.16115766E-04  5.60626395E-04
 -3.77462271E-05 -1.50163761E-05 -4.41227559E-05  1.24833383E-05 -8.70199977E-06
 -3.52135280E-05  2.04145102E-04  6.59731810E-05  1.80124043E-04  5.18568220E-04
  1.08220380E-03 -1.46930765E-04 -5.22761997E-04 -1.01059597E-03  2.44634279E-06
 -5.60380752E-07 -1.75869582E-06  9.13420145E-06  2.43211131E-06  9.42211298E-07
 -4.64294595E-06  5.67317248E-05 -3.39960051E-06  1.03328954E-05 -5.17864469E-06
  1.81409353E-05  3.14292313E-05 -8.07253653E-06  1.96003435E-07 -1.23712790E-07
 -3.62106451E-07  3.71288222E-07  3.22663245E-08  7.95291881E-08 -2.32133578E-06
  2.97260690E-05  1.99385743E-05 -4.31473491E-06  1.07318676E-07 -2.80498806E-06
  5.80816844E-06  3.82740507E-06 -1.62200833E-06  2.74369394E-06  1.12661757E-05
 -2.16182562E-05  2.71039245E-07 -3.54991877E-06 -1.30585160E-07  8.05731421E-07
  9.31139981E-07 -1.16089048E-07  8.52488692E-07  4.97856839E-08 -9.89782719E-08
 -1.28547357E-07 -2.75961838E-05 -1.88429666E-04 -1.89326416E-04 -1.89780454E-05
  1.64147724E-04  2.13117361E-05  4.24274851E-05 -2.61719443E-04  2.30246708E-05
  2.13354895E-06  6.49363467E-07 -2.18255120E-06  2.42513684E-06 -1.92328859E-06
 -1.36514442E-04 -1.67805073E-04 -2.45526785E-04 -7.19610095E-04 -3.31412259E-04
  5.87074774E-04 -8.37625622E-04 -3.96312298E-04  6.78053564E-04  4.97498877E-09
  5.71615983E-06 -7.74897530E-07 -3.28370119E-06  1.14258748E-07 -4.55453219E-07
  1.92950839E-06 -7.34949723E-06 -8.47775906E-06 -3.65331521E-05 -8.33799050E-05
  1.01650494E+00  2.83426930E-02  6.36153937E-02 -5.75358541E-05 -1.78481342E-04
  3.14986193E-04  1.15365238E-04  3.16233447E-04 -5.60599449E-04 -3.77356560E-05
  1.50191537E-05  4.41365598E-05  1.24920325E-05 -8.70718873E-06  1.71029945E-03
  3.94538407E-04  2.81720870E-04 -4.10280731E-04 -1.87333364E-03  3.24229874E-03
  2.28473128E-04  1.39836817E-03 -2.39697924E-03  8.51189012E-05 -3.02065950E-05
 -7.98290044E-05 -5.25107124E-05  1.89829008E-05 -3.86646044E-05  1.90921954E-04
  5.02844470E-05  1.95032457E-04  6.59021988E-04 -1.00607453E-03 -1.56715401E-04
 -6.00115203E-04  9.69433159E-04 -7.19139004E-06 -3.61465337E-06 -4.18891099E-06
  2.59676674E-06 -2.71247563E-06 -3.52232629E-05  2.04124273E-04  6.59472378E-05
  1.80163816E-04  5.18795134E-04 -1.08212660E-03 -1.46966087E-04 -5.22979021E-04
  1.01052225E-03  2.44748545E-06  5.60950753E-07  1.75662242E-06  9.13526086E-06
  2.43227873E-06  5.65923245E-06  1.31795197E-05 -3.56392395E-05 -1.15314523E-05
  2.32083768E-05  5.39087026E-09 -4.67967828E-05  2.47414659E-05  3.69260254E-09
  6.29629282E-07 -2.50639523E-10  8.10684642E-11 -3.48033140E-07  7.54634217E-07
  1.27262500E-05  9.63515787E-05 -2.84601678E-04 -1.46841985E-04 -3.89269929E-05
 -6.73530355E-06 -1.20222347E-09 -1.44876271E-04 -2.77873241E-06 -2.35053974E-09
 -2.65065402E-04 -1.68943458E-05 -2.78228251E-09 -1.03137288E-06  2.94635071E-10
 -2.97444759E-11  4.45959701E-07 -8.52067274E-07  2.38753583E-07 -6.30487132E-11
  9.28832889E-12 -1.52673581E-07  1.91051382E-07 -1.26172977E-04 -1.20452351E-04
 -1.81990784E-04  6.41358084E-04 -1.44944702E-04 -2.11759327E-08 -9.12229590E-04
  2.38381664E-04  2.41952175E-08  2.18042159E-06 -2.60939124E-10 -5.41022452E-10
 -6.24598333E-07  2.41852104E-06 -7.63377807E-05  1.34275303E-05 -1.76321082E-04
 -4.06181142E-04  4.64304866E-04  4.89374125E-08 -4.36567206E-04  6.02991617E-04
  6.15660025E-08  2.80893323E-06  4.87092475E-10 -1.64275137E-10 -1.28605775E-06
  2.83181173E-06 -9.43640098E-06 -6.51406592E-06 -9.42466336E-06 -6.50579967E-06
 -3.04454756E-05  1.40839174E-05 -3.30739916E-05  2.09660613E-04  7.43573433E-05
  6.77927068E-05 -1.21415776E-03 -8.94307989E-05 -3.56966328E-05  1.14978529E-03
  5.43500004E-05 -4.18640605E-06  4.01093499E-06  6.11086224E-06  4.17851528E-06
 -2.19635467E-06  1.72150805E-03  3.53320703E-04  2.74970610E-04 -3.82467615E-05
  3.81809668E-03  3.55756074E-07 -5.12369705E-05 -2.82101321E-03 -2.61709682E-07
 -3.45622544E-05 -2.30818537E-09  1.70269958E-08 -1.25501618E-04 -1.18851402E-05
 -3.30657829E-05  2.09678443E-04  7.43724201E-05  6.77914512E-05 -1.21414293E-03
  8.92226347E-05 -3.56963862E-05  1.14977074E-03 -5.41518034E-05 -4.18851545E-06
 -4.01092106E-06 -6.11039153E-06  4.17750807E-06 -2.19540192E-06  1.01652889E+00
  2.84056154E-02  6.36726624E-02 -4.67961166E-06  3.82797120E-04  3.29871612E-08
  3.14658214E-05 -6.56217095E-04 -5.81084464E-08  2.86963742E-05  5.57388876E-10
 -9.19641984E-09  5.26185115E-05  6.25366913E-06  5.06369584E-05  4.60205791E-04
  1.26456832E-03 -8.93375266E-04 -2.68054433E-06  1.36790593E-07 -1.25714620E-03
 -5.93788663E-04  5.80839801E-08  2.53836030E-09  1.55247111E-12  9.32077875E-13
  8.90318782E-09  4.18596282E-09  7.20961991E-06 -3.06593100E-05  1.11713284E-03
 -8.88616749E-05 -3.06187011E-05 -7.13349674E-04  2.68208958E-09  3.47187115E-04
 -1.50084091E-03  3.86672155E-10  1.05853184E-03 -4.02029918E-03  1.38626843E-08