                                                                        
Freq      RPBE1PBE                                                    Gen                 
Number of atoms                            I               15
Info1-9                                    I   N=           9
         192         192        1002           0           0         100
           6          18        -302
Charge                                     I                1
Multiplicity                               I                1
Number of electrons                        I               58
Number of alpha electrons                  I               29
Number of beta electrons                   I               29
Number of basis functions                  I              392
Number of independent functions            I              392
Number of point charges in /Mol/           I                0
Number of translation vectors              I                0
Atomic numbers                             I   N=          15
           6          16           7           8           7           1
           1           1           1           1           1           6
           1           1           1
Nuclear charges                            R   N=          15
  6.00000000E+00  1.60000000E+01  7.00000000E+00  8.00000000E+00  7.00000000E+00
  1.00000000E+00  1.00000000E+00  1.00000000E+00  1.00000000E+00  1.00000000E+00
  1.00000000E+00  6.00000000E+00  1.00000000E+00  1.00000000E+00  1.00000000E+00
Current cartesian coordinates              R   N=          45
  5.29952402E+00  1.00049967E+00  4.08490315E-01  3.12427748E+00 -1.53857424E+00
  2.15270318E-02  3.52561153E-01 -4.21745817E-02 -3.51193797E-01  2.69970326E-01
  2.23614260E+00 -3.03871506E-01 -4.84149346E+00 -2.50840060E-01 -1.13852128E+00
 -5.64065798E+00 -1.57325792E+00 -2.28602591E+00 -4.90326438E+00  1.44146747E+00
 -2.05686395E+00 -2.91738177E+00 -6.91618296E-01 -9.00137852E-01  5.29830386E+00
  2.19116782E+00 -1.27131169E+00  7.15016598E+00  1.34019253E-01  6.64273694E-01
  4.79905838E+00  2.11090454E+00  2.06854845E+00 -6.15571408E+00 -1.04438300E-01
  1.34207353E+00 -5.22980570E+00  1.33273850E+00  2.48042392E+00 -8.12698058E+00
  3.89622385E-01  1.04325601E+00 -6.01797363E+00 -1.93226244E+00  2.26899928E+00
Force Field                                I                0
Int Atom Types                             I   N=          15
           0           0           0           0           0           0
           0           0           0           0           0           0
           0           0           0
MM charges                                 R   N=          15
  0.00000000E+00  0.00000000E+00  0.00000000E+00  0.00000000E+00  0.00000000E+00
  0.00000000E+00  0.00000000E+00  0.00000000E+00  0.00000000E+00  0.00000000E+00
  0.00000000E+00  0.00000000E+00  0.00000000E+00  0.00000000E+00  0.00000000E+00
Integer atomic weights                     I   N=          15
          12          32          14          16          14           1
           1           1           1           1           1          12
           1           1           1
Real atomic weights                        R   N=          15
  1.20000000E+01  3.19720718E+01  1.40030740E+01  1.59949146E+01  1.40030740E+01
  1.00782504E+00  1.00782504E+00  1.00782504E+00  1.00782504E+00  1.00782504E+00
  1.00782504E+00  1.20000000E+01  1.00782504E+00  1.00782504E+00  1.00782504E+00
Atom fragment info                         I   N=          15
           0           0           0           0           0           0
           0           0           0           0           0           0
           0           0           0
Atom residue num                           I   N=          15
           0           0           0           0           0           0
           0           0           0           0           0           0
           0           0           0
Nuclear spins                              I   N=          15
           0           0           2           0           2           1
           1           1           1           1           1           0
           1           1           1
Nuclear ZEff                               R   N=          15
 -3.60000000E+00 -1.36000000E+01 -4.55000000E+00 -5.60000000E+00 -4.55000000E+00
 -1.00000000E+00 -1.00000000E+00 -1.00000000E+00 -1.00000000E+00 -1.00000000E+00
 -1.00000000E+00 -3.60000000E+00 -1.00000000E+00 -1.00000000E+00 -1.00000000E+00
Nuclear QMom                               R   N=          15
  0.00000000E+00  0.00000000E+00  2.04400000E+00  0.00000000E+00  2.04400000E+00
  0.00000000E+00  0.00000000E+00  0.00000000E+00  0.00000000E+00  0.00000000E+00
  0.00000000E+00  0.00000000E+00  0.00000000E+00  0.00000000E+00  0.00000000E+00
Nuclear GFac                               R   N=          15
  0.00000000E+00  0.00000000E+00  4.03761000E-01  0.00000000E+00  4.03761000E-01
  2.79284600E+00  2.79284600E+00  2.79284600E+00  2.79284600E+00  2.79284600E+00
  2.79284600E+00  0.00000000E+00  2.79284600E+00  2.79284600E+00  2.79284600E+00
MicOpt                                     I   N=          15
          -1          -1          -1          -1          -1          -1
          -1          -1          -1          -1          -1          -1
          -1          -1          -1
Number of contracted shells                I              146
Number of primitive shells                 I              222
Pure/Cartesian d shells                    I                0
Pure/Cartesian f shells                    I                0
Highest angular momentum                   I                3
Largest degree of contraction              I                7
Shell types                                I   N=         146
           0           0           0           0           0           0
           1           1           1          -2          -2          -2
          -3           0           0           0           0           0
           0           1           1           1           1           1
           1          -2          -2          -2          -2          -3
           0           0           0           0           0           0
           1           1           1          -2          -2          -2
          -3           0           0           0           0           0
           0           1           1           1           1          -2
          -2          -2          -3           0           0           0
           0           0           0           1           1           1
          -2          -2          -2          -3           0           0
           0           1           1           1          -2           0
           0           0           1           1           1          -2
           0           0           0           1           1           1
          -2           0           0           0           1           1
           1          -2           0           0           0           1
           1           1          -2           0           0           0
           1           1           1          -2           0           0
           0           0           0           0           1           1
           1          -2          -2          -2          -3           0
           0           0           1           1           1          -2
           0           0           0           1           1           1
          -2           0           0           0           1           1
           1          -2
Number of primitives per shell             I   N=         146
           6           2           1           1           1           1
           4           1           1           1           1           1
           1           7           3           2           1           1
           1           5           1           1           1           1
           1           1           1           1           1           1
           6           2           1           1           1           1
           4           1           1           1           1           1
           1           6           2           1           1           1
           1           4           1           1           1           1
           1           1           1           6           2           1
           1           1           1           4           1           1
           1           1           1           1           3           1
           1           1           1           1           1           3
           1           1           1           1           1           1
           3           1           1           1           1           1
           1           3           1           1           1           1
           1           1           3           1           1           1
           1           1           1           3           1           1
           1           1           1           1           6           2
           1           1           1           1           4           1
           1           1           1           1           1           3
           1           1           1           1           1           1
           3           1           1           1           1           1
           1           3           1           1           1           1
           1           1
Shell to atom map                          I   N=         146
           1           1           1           1           1           1
           1           1           1           1           1           1
           1           2           2           2           2           2
           2           2           2           2           2           2
           2           2           2           2           2           2
           3           3           3           3           3           3
           3           3           3           3           3           3
           3           4           4           4           4           4
           4           4           4           4           4           4
           4           4           4           5           5           5
           5           5           5           5           5           5
           5           5           5           5           6           6
           6           6           6           6           6           7
           7           7           7           7           7           7
           8           8           8           8           8           8
           8           9           9           9           9           9
           9           9          10          10          10          10
          10          10          10          11          11          11
          11          11          11          11          12          12
          12          12          12          12          12          12
          12          12          12          12          12          13
          13          13          13          13          13          13
          14          14          14          14          14          14
          14          15          15          15          15          15
          15          15
Primitive exponents                        R   N=         222
  1.35753497E+04  2.03523337E+03  4.63225624E+02  1.31200196E+02  4.28530159E+01
  1.55841858E+01  6.20671385E+00  2.57648965E+00  5.76963394E-01  2.29728314E-01
  9.51644400E-02  4.84754014E-02  3.46972322E+01  7.95826228E+00  2.37808269E+00
  8.14332082E-01  2.88875473E-01  1.00568237E-01  1.09700000E+00  3.18000000E-01
  9.09853364E-02  7.61000000E-01  6.07009281E+04  9.10261069E+03  2.07141660E+03
  5.86024768E+02  1.90553950E+02  6.76303843E+01  2.51273069E+01  1.12574630E+02
  3.47955542E+01  6.51155562E+00  3.23990323E+00  1.54771609E+00  4.05410301E-01
  1.45506511E-01  5.01788395E-02  5.64367160E+02  1.33426244E+02  4.24682712E+01
  1.56165276E+01  6.10939885E+00  2.44041602E+00  8.38822013E-01  3.12887469E-01
  1.07701090E-01  3.03598336E-02  3.75600000E+00  8.12000000E-01  2.73000000E-01
  8.15470250E-02  5.57000000E-01  1.97308006E+04  2.95789587E+03  6.73221336E+02
  1.90682495E+02  6.22954419E+01  2.26541612E+01  8.97914774E+00  3.68630024E+00
  8.46600768E-01  3.36471338E-01  1.36476537E-01  6.84416058E-02  4.92003805E+01
  1.13467905E+01  3.42739724E+00  1.17855251E+00  4.16422050E-01  1.42608260E-01
  1.65400000E+00  4.69000000E-01  1.28296421E-01  1.09300000E+00  2.70323826E+04
  4.05238714E+03  9.22327227E+02  2.61240710E+02  8.53546414E+01  3.10350352E+01
  1.22608607E+01  4.99870760E+00  1.17031082E+00  4.64747410E-01  1.85045364E-01
  7.02880263E-02  6.32749548E+01  1.46270494E+01  4.45012235E+00  1.52757996E+00
  5.29351179E-01  1.74784213E-01  5.11127457E-02  2.31400000E+00  6.45000000E-01
  1.46964774E-01  1.42800000E+00  1.97308006E+04  2.95789587E+03  6.73221336E+02
  1.90682495E+02  6.22954419E+01  2.26541612E+01  8.97914774E+00  3.68630024E+00
  8.46600768E-01  3.36471338E-01  1.36476537E-01  6.84416058E-02  4.92003805E+01
  1.13467905E+01  3.42739724E+00  1.17855251E+00  4.16422050E-01  1.42608260E-01
  1.65400000E+00  4.69000000E-01  1.28296421E-01  1.09300000E+00  3.40613410E+01
  5.12357460E+00  1.16466260E+00  3.27230410E-01  1.03072410E-01  1.40700000E+00
  3.88000000E-01  9.57741296E-02  1.05700000E+00  3.40613410E+01  5.12357460E+00
  1.16466260E+00  3.27230410E-01  1.03072410E-01  1.40700000E+00  3.88000000E-01
  9.57741296E-02  1.05700000E+00  3.40613410E+01  5.12357460E+00  1.16466260E+00
  3.27230410E-01  1.03072410E-01  1.40700000E+00  3.88000000E-01  9.57741296E-02
  1.05700000E+00  3.40613410E+01  5.12357460E+00  1.16466260E+00  3.27230410E-01
  1.03072410E-01  1.40700000E+00  3.88000000E-01  9.57741296E-02  1.05700000E+00
  3.40613410E+01  5.12357460E+00  1.16466260E+00  3.27230410E-01  1.03072410E-01
  1.40700000E+00  3.88000000E-01  9.57741296E-02  1.05700000E+00  3.40613410E+01
  5.12357460E+00  1.16466260E+00  3.27230410E-01  1.03072410E-01  1.40700000E+00
  3.88000000E-01  9.57741296E-02  1.05700000E+00  1.35753497E+04  2.03523337E+03
  4.63225624E+02  1.31200196E+02  4.28530159E+01  1.55841858E+01  6.20671385E+00
  2.57648965E+00  5.76963394E-01  2.29728314E-01  9.51644400E-02  4.84754014E-02
  3.46972322E+01  7.95826228E+00  2.37808269E+00  8.14332082E-01  2.88875473E-01
  1.00568237E-01  1.09700000E+00  3.18000000E-01  9.09853364E-02  7.61000000E-01
  3.40613410E+01  5.12357460E+00  1.16466260E+00  3.27230410E-01  1.03072410E-01
  1.40700000E+00  3.88000000E-01  9.57741296E-02  1.05700000E+00  3.40613410E+01
  5.12357460E+00  1.16466260E+00  3.27230410E-01  1.03072410E-01  1.40700000E+00
  3.88000000E-01  9.57741296E-02  1.05700000E+00  3.40613410E+01  5.12357460E+00
  1.16466260E+00  3.27230410E-01  1.03072410E-01  1.40700000E+00  3.88000000E-01
  9.57741296E-02  1.05700000E+00
Contraction coefficients                   R   N=         222
  6.06455036E-04  4.69790889E-03  2.43324776E-02  9.73999683E-02  3.01955843E-01
  6.62336091E-01  6.55953085E-01  3.75856333E-01  1.00000000E+00  1.00000000E+00
  1.00000000E+00  1.00000000E+00  1.13272200E-02  7.61696592E-02  3.01922522E-01
  7.27850273E-01  1.00000000E+00  1.00000000E+00  1.00000000E+00  1.00000000E+00
  1.00000000E+00  1.00000000E+00  5.23800749E-04  4.05063268E-03  2.08270042E-02
  8.14968503E-02  2.37491138E-01  4.47261715E-01  3.48919184E-01  1.00455699E-01
  4.33911729E-01 -1.20843306E+00  6.74981294E-01  3.47087958E-01  1.00000000E+00
  1.00000000E+00  1.00000000E+00  3.48869236E-03  2.76851268E-02  1.26594002E-01
  3.61659257E-01  6.12220344E-01  1.00000000E+00  1.00000000E+00  1.00000000E+00
  1.00000000E+00  1.00000000E+00  1.00000000E+00  1.00000000E+00  1.00000000E+00
  1.00000000E+00  1.00000000E+00  5.86264026E-04  4.54288206E-03  2.35584135E-02
  9.47091933E-02  2.97197849E-01  6.69162469E-01  6.45966836E-01  3.87005744E-01
  1.00000000E+00  1.00000000E+00  1.00000000E+00  1.00000000E+00  1.14488251E-02
  7.84223380E-02  3.08180947E-01  7.20271964E-01  1.00000000E+00  1.00000000E+00
  1.00000000E+00  1.00000000E+00  1.00000000E+00  1.00000000E+00  5.72273352E-04
  4.43532335E-03  2.30201077E-02  9.28224907E-02  2.93785000E-01  6.74016045E-01
  6.38399370E-01  3.95345871E-01  1.00000000E+00  1.00000000E+00  1.00000000E+00
  1.00000000E+00  1.20183322E-02  8.30054218E-02  3.19917439E-01  7.07155429E-01
  1.00000000E+00  1.00000000E+00  1.00000000E+00  1.00000000E+00  1.00000000E+00
  1.00000000E+00  1.00000000E+00  5.86264026E-04  4.54288206E-03  2.35584135E-02
  9.47091933E-02  2.97197849E-01  6.69162469E-01  6.45966836E-01  3.87005744E-01
  1.00000000E+00  1.00000000E+00  1.00000000E+00  1.00000000E+00  1.14488251E-02
  7.84223380E-02  3.08180947E-01  7.20271964E-01  1.00000000E+00  1.00000000E+00
  1.00000000E+00  1.00000000E+00  1.00000000E+00  1.00000000E+00  2.54393072E-02
  1.90085949E-01  8.52441130E-01  1.00000000E+00  1.00000000E+00  1.00000000E+00
  1.00000000E+00  1.00000000E+00  1.00000000E+00  2.54393072E-02  1.90085949E-01
  8.52441130E-01  1.00000000E+00  1.00000000E+00  1.00000000E+00  1.00000000E+00
  1.00000000E+00  1.00000000E+00  2.54393072E-02  1.90085949E-01  8.52441130E-01
  1.00000000E+00  1.00000000E+00  1.00000000E+00  1.00000000E+00  1.00000000E+00
  1.00000000E+00  2.54393072E-02  1.90085949E-01  8.52441130E-01  1.00000000E+00
  1.00000000E+00  1.00000000E+00  1.00000000E+00  1.00000000E+00  1.00000000E+00
  2.54393072E-02  1.90085949E-01  8.52441130E-01  1.00000000E+00  1.00000000E+00
  1.00000000E+00  1.00000000E+00  1.00000000E+00  1.00000000E+00  2.54393072E-02
  1.90085949E-01  8.52441130E-01  1.00000000E+00  1.00000000E+00  1.00000000E+00
  1.00000000E+00  1.00000000E+00  1.00000000E+00  6.06455036E-04  4.69790889E-03
  2.43324776E-02  9.73999683E-02  3.01955843E-01  6.62336091E-01  6.55953085E-01
  3.75856333E-01  1.00000000E+00  1.00000000E+00  1.00000000E+00  1.00000000E+00
  1.13272200E-02  7.61696592E-02  3.01922522E-01  7.27850273E-01  1.00000000E+00
  1.00000000E+00  1.00000000E+00  1.00000000E+00  1.00000000E+00  1.00000000E+00
  2.54393072E-02  1.90085949E-01  8.52441130E-01  1.00000000E+00  1.00000000E+00
  1.00000000E+00  1.00000000E+00  1.00000000E+00  1.00000000E+00  2.54393072E-02
  1.90085949E-01  8.52441130E-01  1.00000000E+00  1.00000000E+00  1.00000000E+00
  1.00000000E+00  1.00000000E+00  1.00000000E+00  2.54393072E-02  1.90085949E-01
  8.52441130E-01  1.00000000E+00  1.00000000E+00  1.00000000E+00  1.00000000E+00
  1.00000000E+00  1.00000000E+00
Coordinates of each shell                  R   N=         438
  5.29952402E+00  1.00049967E+00  4.08490315E-01  5.29952402E+00  1.00049967E+00
  4.08490315E-01  5.29952402E+00  1.00049967E+00  4.08490315E-01  5.29952402E+00
  1.00049967E+00  4.08490315E-01  5.29952402E+00  1.00049967E+00  4.08490315E-01
  5.29952402E+00  1.00049967E+00  4.08490315E-01  5.29952402E+00  1.00049967E+00
  4.08490315E-01  5.29952402E+00  1.00049967E+00  4.08490315E-01  5.29952402E+00
  1.00049967E+00  4.08490315E-01  5.29952402E+00  1.00049967E+00  4.08490315E-01
  5.29952402E+00  1.00049967E+00  4.08490315E-01  5.29952402E+00  1.00049967E+00
  4.08490315E-01  5.29952402E+00  1.00049967E+00  4.08490315E-01  3.12427748E+00
 -1.53857424E+00  2.15270318E-02  3.12427748E+00 -1.53857424E+00  2.15270318E-02
  3.12427748E+00 -1.53857424E+00  2.15270318E-02  3.12427748E+00 -1.53857424E+00
  2.15270318E-02  3.12427748E+00 -1.53857424E+00  2.15270318E-02  3.12427748E+00
 -1.53857424E+00  2.15270318E-02  3.12427748E+00 -1.53857424E+00  2.15270318E-02
  3.12427748E+00 -1.53857424E+00  2.15270318E-02  3.12427748E+00 -1.53857424E+00
  2.15270318E-02  3.12427748E+00 -1.53857424E+00  2.15270318E-02  3.12427748E+00
 -1.53857424E+00  2.15270318E-02  3.12427748E+00 -1.53857424E+00  2.15270318E-02
  3.12427748E+00 -1.53857424E+00  2.15270318E-02  3.12427748E+00 -1.53857424E+00
  2.15270318E-02  3.12427748E+00 -1.53857424E+00  2.15270318E-02  3.12427748E+00
 -1.53857424E+00  2.15270318E-02  3.12427748E+00 -1.53857424E+00  2.15270318E-02
  3.52561153E-01 -4.21745817E-02 -3.51193797E-01  3.52561153E-01 -4.21745817E-02
 -3.51193797E-01  3.52561153E-01 -4.21745817E-02 -3.51193797E-01  3.52561153E-01
 -4.21745817E-02 -3.51193797E-01  3.52561153E-01 -4.21745817E-02 -3.51193797E-01
  3.52561153E-01 -4.21745817E-02 -3.51193797E-01  3.52561153E-01 -4.21745817E-02
 -3.51193797E-01  3.52561153E-01 -4.21745817E-02 -3.51193797E-01  3.52561153E-01
 -4.21745817E-02 -3.51193797E-01  3.52561153E-01 -4.21745817E-02 -3.51193797E-01
  3.52561153E-01 -4.21745817E-02 -3.51193797E-01  3.52561153E-01 -4.21745817E-02
 -3.51193797E-01  3.52561153E-01 -4.21745817E-02 -3.51193797E-01  2.69970326E-01
  2.23614260E+00 -3.03871506E-01  2.69970326E-01  2.23614260E+00 -3.03871506E-01
  2.69970326E-01  2.23614260E+00 -3.03871506E-01  2.69970326E-01  2.23614260E+00
 -3.03871506E-01  2.69970326E-01  2.23614260E+00 -3.03871506E-01  2.69970326E-01
  2.23614260E+00 -3.03871506E-01  2.69970326E-01  2.23614260E+00 -3.03871506E-01
  2.69970326E-01  2.23614260E+00 -3.03871506E-01  2.69970326E-01  2.23614260E+00
 -3.03871506E-01  2.69970326E-01  2.23614260E+00 -3.03871506E-01  2.69970326E-01
  2.23614260E+00 -3.03871506E-01  2.69970326E-01  2.23614260E+00 -3.03871506E-01
  2.69970326E-01  2.23614260E+00 -3.03871506E-01  2.69970326E-01  2.23614260E+00
 -3.03871506E-01 -4.84149346E+00 -2.50840060E-01 -1.13852128E+00 -4.84149346E+00
 -2.50840060E-01 -1.13852128E+00 -4.84149346E+00 -2.50840060E-01 -1.13852128E+00
 -4.84149346E+00 -2.50840060E-01 -1.13852128E+00 -4.84149346E+00 -2.50840060E-01
 -1.13852128E+00 -4.84149346E+00 -2.50840060E-01 -1.13852128E+00 -4.84149346E+00
 -2.50840060E-01 -1.13852128E+00 -4.84149346E+00 -2.50840060E-01 -1.13852128E+00
 -4.84149346E+00 -2.50840060E-01 -1.13852128E+00 -4.84149346E+00 -2.50840060E-01
 -1.13852128E+00 -4.84149346E+00 -2.50840060E-01 -1.13852128E+00 -4.84149346E+00
 -2.50840060E-01 -1.13852128E+00 -4.84149346E+00 -2.50840060E-01 -1.13852128E+00
 -5.64065798E+00 -1.57325792E+00 -2.28602591E+00 -5.64065798E+00 -1.57325792E+00
 -2.28602591E+00 -5.64065798E+00 -1.57325792E+00 -2.28602591E+00 -5.64065798E+00
 -1.57325792E+00 -2.28602591E+00 -5.64065798E+00 -1.57325792E+00 -2.28602591E+00
 -5.64065798E+00 -1.57325792E+00 -2.28602591E+00 -5.64065798E+00 -1.57325792E+00
 -2.28602591E+00 -4.90326438E+00  1.44146747E+00 -2.05686395E+00 -4.90326438E+00
  1.44146747E+00 -2.05686395E+00 -4.90326438E+00  1.44146747E+00 -2.05686395E+00
 -4.90326438E+00  1.44146747E+00 -2.05686395E+00 -4.90326438E+00  1.44146747E+00
 -2.05686395E+00 -4.90326438E+00  1.44146747E+00 -2.05686395E+00 -4.90326438E+00
  1.44146747E+00 -2.05686395E+00 -2.91738177E+00 -6.91618296E-01 -9.00137852E-01
 -2.91738177E+00 -6.91618296E-01 -9.00137852E-01 -2.91738177E+00 -6.91618296E-01
 -9.00137852E-01 -2.91738177E+00 -6.91618296E-01 -9.00137852E-01 -2.91738177E+00
 -6.91618296E-01 -9.00137852E-01 -2.91738177E+00 -6.91618296E-01 -9.00137852E-01
 -2.91738177E+00 -6.91618296E-01 -9.00137852E-01  5.29830386E+00  2.19116782E+00
 -1.27131169E+00  5.29830386E+00  2.19116782E+00 -1.27131169E+00  5.29830386E+00
  2.19116782E+00 -1.27131169E+00  5.29830386E+00  2.19116782E+00 -1.27131169E+00
  5.29830386E+00  2.19116782E+00 -1.27131169E+00  5.29830386E+00  2.19116782E+00
 -1.27131169E+00  5.29830386E+00  2.19116782E+00 -1.27131169E+00  7.15016598E+00
  1.34019253E-01  6.64273694E-01  7.15016598E+00  1.34019253E-01  6.64273694E-01
  7.15016598E+00  1.34019253E-01  6.64273694E-01  7.15016598E+00  1.34019253E-01
  6.64273694E-01  7.15016598E+00  1.34019253E-01  6.64273694E-01  7.15016598E+00
  1.34019253E-01  6.64273694E-01  7.15016598E+00  1.34019253E-01  6.64273694E-01
  4.79905838E+00  2.11090454E+00  2.06854845E+00  4.79905838E+00  2.11090454E+00
  2.06854845E+00  4.79905838E+00  2.11090454E+00  2.06854845E+00  4.79905838E+00
  2.11090454E+00  2.06854845E+00  4.79905838E+00  2.11090454E+00  2.06854845E+00
  4.79905838E+00  2.11090454E+00  2.06854845E+00  4.79905838E+00  2.11090454E+00
  2.06854845E+00 -6.15571408E+00 -1.04438300E-01  1.34207353E+00 -6.15571408E+00
 -1.04438300E-01  1.34207353E+00 -6.15571408E+00 -1.04438300E-01  1.34207353E+00
 -6.15571408E+00 -1.04438300E-01  1.34207353E+00 -6.15571408E+00 -1.04438300E-01
  1.34207353E+00 -6.15571408E+00 -1.04438300E-01  1.34207353E+00 -6.15571408E+00
 -1.04438300E-01  1.34207353E+00 -6.15571408E+00 -1.04438300E-01  1.34207353E+00
 -6.15571408E+00 -1.04438300E-01  1.34207353E+00 -6.15571408E+00 -1.04438300E-01
  1.34207353E+00 -6.15571408E+00 -1.04438300E-01  1.34207353E+00 -6.15571408E+00
 -1.04438300E-01  1.34207353E+00 -6.15571408E+00 -1.04438300E-01  1.34207353E+00
 -5.22980570E+00  1.33273850E+00  2.48042392E+00 -5.22980570E+00  1.33273850E+00
  2.48042392E+00 -5.22980570E+00  1.33273850E+00  2.48042392E+00 -5.22980570E+00
  1.33273850E+00  2.48042392E+00 -5.22980570E+00  1.33273850E+00  2.48042392E+00
 -5.22980570E+00  1.33273850E+00  2.48042392E+00 -5.22980570E+00  1.33273850E+00
  2.48042392E+00 -8.12698058E+00  3.89622385E-01  1.04325601E+00 -8.12698058E+00
  3.89622385E-01  1.04325601E+00 -8.12698058E+00  3.89622385E-01  1.04325601E+00
 -8.12698058E+00  3.89622385E-01  1.04325601E+00 -8.12698058E+00  3.89622385E-01
  1.04325601E+00 -8.12698058E+00  3.89622385E-01  1.04325601E+00 -8.12698058E+00
  3.89622385E-01  1.04325601E+00 -6.01797363E+00 -1.93226244E+00  2.26899928E+00
 -6.01797363E+00 -1.93226244E+00  2.26899928E+00 -6.01797363E+00 -1.93226244E+00
  2.26899928E+00 -6.01797363E+00 -1.93226244E+00  2.26899928E+00 -6.01797363E+00
 -1.93226244E+00  2.26899928E+00 -6.01797363E+00 -1.93226244E+00  2.26899928E+00
 -6.01797363E+00 -1.93226244E+00  2.26899928E+00
Constraint Structure                       R   N=          45
  5.29952402E+00  1.00049967E+00  4.08490315E-01  3.12427748E+00 -1.53857424E+00
  2.15270318E-02  3.52561153E-01 -4.21745817E-02 -3.51193797E-01  2.69970326E-01
  2.23614260E+00 -3.03871506E-01 -4.84149346E+00 -2.50840060E-01 -1.13852128E+00
 -5.64065798E+00 -1.57325792E+00 -2.28602591E+00 -4.90326438E+00  1.44146747E+00
 -2.05686395E+00 -2.91738177E+00 -6.91618296E-01 -9.00137852E-01  5.29830386E+00
  2.19116782E+00 -1.27131169E+00  7.15016598E+00  1.34019253E-01  6.64273694E-01
  4.79905838E+00  2.11090454E+00  2.06854845E+00 -6.15571408E+00 -1.04438300E-01
  1.34207353E+00 -5.22980570E+00  1.33273850E+00  2.48042392E+00 -8.12698058E+00
  3.89622385E-01  1.04325601E+00 -6.01797363E+00 -1.93226244E+00  2.26899928E+00
Num ILSW                                   I              100
ILSW                                       I   N=         100
           0           0           0           0           2           0
           0           0           0           0        1009          -1
           0           0           0           0           0           0
           0           0           0           0           1           0
           1           0           0           0           0           0
           0           0      100000           0          -1           0
           0           0           0           0           0           0
           0           0           0           1           0           0
           0           0           1           0           0           0
           0           0           4          40           0           0
           0           0          13           0           0           0
           0           0           0           0           0           0
           0           0           0           0           0           0
           0           0           0           0           0           0
           0           0           0           0           0           0
           0           0           0           0           0           0
           0           0           0           0
Num RLSW                                   I               40
RLSW                                       R   N=          40
  7.50000000E-01  7.50000000E-01  1.00000000E+00  1.00000000E+00  2.50000000E-01
  0.00000000E+00  0.00000000E+00  1.00000000E+00  0.00000000E+00  0.00000000E+00
  0.00000000E+00  0.00000000E+00  1.00000000E+00  0.00000000E+00  0.00000000E+00
  0.00000000E+00  0.00000000E+00  1.00000000E+00  0.00000000E+00  0.00000000E+00
  0.00000000E+00  0.00000000E+00  1.00000000E+00  0.00000000E+00  0.00000000E+00
  0.00000000E+00  0.00000000E+00  1.00000000E+00  0.00000000E+00  0.00000000E+00
  0.00000000E+00  0.00000000E+00  1.00000000E+00  0.00000000E+00  0.00000000E+00
  0.00000000E+00  0.00000000E+00  0.00000000E+00  1.00000000E+00  1.00000000E+00
MxBond                                     I                4
NBond                                      I   N=          15
           4           2           2           1           4           1
           1           1           1           1           1           4
           1           1           1
IBond                                      I   N=          60
           2           9          10          11           1           3
           0           0           2           4           0           0
           3           0           0           0           6           7
           8          12           5           0           0           0
           5           0           0           0           5           0
           0           0           1           0           0           0
           1           0           0           0           1           0
           0           0           5          13          14          15
          12           0           0           0          12           0
           0           0          12           0           0           0
RBond                                      R   N=          60
  1.00000000E+00  1.00000000E+00  1.00000000E+00  1.00000000E+00  1.00000000E+00
  1.00000000E+00  0.00000000E+00  0.00000000E+00  1.00000000E+00  2.00000000E+00