 Entering Gaussian System, Link 0=g09
 Input=n.com
 Output=n.log
 AtFile(1): n.xyz
            C         -2.57723        1.05776        0.06643
            S         -2.06794       -0.63110       -0.19022
            N         -0.43440       -0.61345        0.01309
            O          0.11962        0.44963        0.28107
            N          0.71468       -3.16919       -0.29741
            H         -0.03946       -3.90185       -0.47152
            H          1.04415       -3.29288        0.65859
            H          0.28153       -2.24911       -0.35133
            H         -2.31216        1.37781        1.07367
            H         -3.65962        1.07084       -0.05932
            H         -2.10551        1.70595       -0.67148
            C          1.82811       -3.29920       -1.27328
            H          2.58544       -2.54691       -1.06785
            H          2.25609       -4.29403       -1.18028
            H          1.42955       -3.16344       -2.27543
 AtFile(1): /home/MARQNET/talipovm/basis-library/def2-SV(P)+d.gbs
            !  Def2-SV(P)  EMSL  Basis Set Exchange Library   3/29/11 8:36 AM
            ! Elements                             References
            ! --------                             ----------
            ! H He Li Be B C N O F Ne Na Mg Al Si P S Cl Ar K Ca Sc Ti V Cr Mn Fe Co Ni Cu Zn Ga Ge As Se Br Kr Rb Sr Y Zr Nb Mo Tc Ru Rh Pd Ag Cd In Sn Sb Te I Xe Cs Ba La Hf Ta W Re Os Ir Pt Au Hg Tl Pb Bi Po At Rn : F. Weigend and R. Ahlrichs, Phys. Chem. Chem. Phys., Balanced basis sets of split valence, triple zeta valence and quadruple zeta valence
            ! quality for H to Rn: Design and assessment of accuracy 7, 3297 (2005).
            !
            -H     0
            S   3   1.00
                 13.0107010              0.19682158E-01
                  1.9622572              0.13796524
                  0.44453796             0.47831935
            S   1   1.00
                  0.12194962             1.0000000
            ****
            -C     0
            S   5   1.00
               1238.4016938              0.54568832082E-02
                186.29004992             0.40638409211E-01
                 42.251176346            0.18025593888
                 11.676557932            0.46315121755
                  3.5930506482           0.44087173314
            S   1   1.00
                  0.40245147363          1.0000000
            S   1   1.00
                  0.13090182668          1.0000000
            P   3   1.00
                  9.4680970621           0.38387871728E-01
                  2.0103545142           0.21117025112
                  0.54771004707          0.51328172114
            P   1   1.00
                  0.15268613795          1.0000000
            D   1   1.00
                  0.8000000              1.0000000
            ****
            -N     0
            S   5   1.00
               1712.8415853             -0.53934125305E-02
                257.64812677            -0.40221581118E-01
                 58.458245853           -0.17931144990
                 16.198367905           -0.46376317823
                  5.0052600809          -0.44171422662
            S   1   1.00
                  0.58731856571          1.0000000
            S   1   1.00
                  0.18764592253          1.0000000
            P   3   1.00
                 13.571470233           -0.40072398852E-01
                  2.9257372874          -0.21807045028
                  0.79927750754         -0.51294466049
            P   1   1.00
                  0.21954348034          1.0000000
            D   1   1.00
                  1.0000000              1.0000000
            ****
            -O     0
            S   5   1.00
               2266.1767785             -0.53431809926E-02
                340.87010191            -0.39890039230E-01
                 77.363135167           -0.17853911985
                 21.479644940           -0.46427684959
                  6.6589433124          -0.44309745172
            S   1   1.00
                  0.80975975668          1.0000000
            S   1   1.00
                  0.25530772234          1.0000000
            P   3   1.00
                 17.721504317            0.43394573193E-01
                  3.8635505440           0.23094120765
                  1.0480920883           0.51375311064
            P   1   1.00
                  0.27641544411          1.0000000
            D   1   1.00
                  1.2000000              1.0000000
            ****
            -S     0
            S   5   1.00
               9184.9303010             -0.22294387756E-02
               1381.5105503             -0.16683029937E-01
                313.87147580            -0.75262436116E-01
                 88.053870623           -0.19376827038
                 27.039914905           -0.17718020803
            S   3   1.00
                 45.648731303           -0.10736062573
                  4.9664522326           0.65066293018
                  2.0116242047           0.59712155354
            S   1   1.00
                  0.35661077013          1.0000000
            S   1   1.00
                  0.13507221477          1.0000000
            P   5   1.00
                261.98233439            -0.92729929822E-02
                 61.306894736           -0.66547669241E-01
                 19.103729887           -0.24828595903
                  6.6567720378          -0.48703847402
                  2.3959635161          -0.39337850312
            P   1   1.00
                  0.61776161679          1.0000000
            P   1   1.00
                  0.16993376871          1.0000000
            D   1   1.00
                  0.5500000              1.0000000
            D   1   1.00
                  2.9940000              1.0000000
            ****
 Initial command:
 /group/hpc-share/gaussian-2009-B01/g09/l1.exe /gaussian/g_n.com-43383.hn1/Gau-20653.inp -scrdir=/gaussian/g_n.com-43383.hn1/
 Entering Link 1 = /group/hpc-share/gaussian-2009-B01/g09/l1.exe PID=     20667.
  
 Copyright (c) 1988,1990,1992,1993,1995,1998,2003,2009,2010,
            Gaussian, Inc.  All Rights Reserved.
  
 This is part of the Gaussian(R) 09 program.  It is based on
 the Gaussian(R) 03 system (copyright 2003, Gaussian, Inc.),
 the Gaussian(R) 98 system (copyright 1998, Gaussian, Inc.),
 the Gaussian(R) 94 system (copyright 1995, Gaussian, Inc.),
 the Gaussian 92(TM) system (copyright 1992, Gaussian, Inc.),
 the Gaussian 90(TM) system (copyright 1990, Gaussian, Inc.),
 the Gaussian 88(TM) system (copyright 1988, Gaussian, Inc.),
 the Gaussian 86(TM) system (copyright 1986, Carnegie Mellon
 University), and the Gaussian 82(TM) system (copyright 1983,
 Carnegie Mellon University). Gaussian is a federally registered
 trademark of Gaussian, Inc.
  
 This software contains proprietary and confidential information,
 including trade secrets, belonging to Gaussian, Inc.
  
 This software is provided under written license and may be
 used, copied, transmitted, or stored only in accord with that
 written license.
  
 The following legend is applicable only to US Government
 contracts under FAR:
  
                    RESTRICTED RIGHTS LEGEND
  
 Use, reproduction and disclosure by the US Government is
 subject to restrictions as set forth in subparagraphs (a)
 and (c) of the Commercial Computer Software - Restricted
 Rights clause in FAR 52.227-19.
  
 Gaussian, Inc.
 340 Quinnipiac St., Bldg. 40, Wallingford CT 06492
  
  
 ---------------------------------------------------------------
 Warning -- This program may not be used in any manner that
 competes with the business of Gaussian, Inc. or will provide
 assistance to any competitor of Gaussian, Inc.  The licensee
 of this program is prohibited from giving any competitor of
 Gaussian, Inc. access to this program.  By using this program,
 the user acknowledges that Gaussian, Inc. is engaged in the
 business of creating and licensing software in the field of
 computational chemistry and represents and warrants to the
 licensee that it is not a competitor of Gaussian, Inc. and that
 it will not use this program in any manner prohibited above.
 ---------------------------------------------------------------
  

 Cite this work as:
 Gaussian 09, Revision B.01,
 M. J. Frisch, G. W. Trucks, H. B. Schlegel, G. E. Scuseria, 
 M. A. Robb, J. R. Cheeseman, G. Scalmani, V. Barone, B. Mennucci, 
 G. A. Petersson, H. Nakatsuji, M. Caricato, X. Li, H. P. Hratchian, 
 A. F. Izmaylov, J. Bloino, G. Zheng, J. L. Sonnenberg, M. Hada, 
 M. Ehara, K. Toyota, R. Fukuda, J. Hasegawa, M. Ishida, T. Nakajima, 
 Y. Honda, O. Kitao, H. Nakai, T. Vreven, J. A. Montgomery, Jr., 
 J. E. Peralta, F. Ogliaro, M. Bearpark, J. J. Heyd, E. Brothers, 
 K. N. Kudin, V. N. Staroverov, T. Keith, R. Kobayashi, J. Normand, 
 K. Raghavachari, A. Rendell, J. C. Burant, S. S. Iyengar, J. Tomasi, 
 M. Cossi, N. Rega, J. M. Millam, M. Klene, J. E. Knox, J. B. Cross, 
 V. Bakken, C. Adamo, J. Jaramillo, R. Gomperts, R. E. Stratmann, 
 O. Yazyev, A. J. Austin, R. Cammi, C. Pomelli, J. W. Ochterski, 
 R. L. Martin, K. Morokuma, V. G. Zakrzewski, G. A. Voth, 
 P. Salvador, J. J. Dannenberg, S. Dapprich, A. D. Daniels, 
 O. Farkas, J. B. Foresman, J. V. Ortiz, J. Cioslowski, 
 and D. J. Fox, Gaussian, Inc., Wallingford CT, 2010.
 
 ******************************************
 Gaussian 09:  EM64L-G09RevB.01 12-Aug-2010
                 1-Apr-2011 
 ******************************************
 %nproc=8
 Will use up to    8 processors via shared memory.
 %mem=12Gb
 %chk=n.chk
 -----------------------
 #p pbe1pbe/gen opt freq
 -----------------------
 1/14=-1,18=20,19=15,26=3,38=1/1,3;
 2/9=110,12=2,17=6,18=5,40=1/2;
 3/5=7,11=2,16=1,25=1,30=1,71=1,74=-13/1,2,3;
 4//1;
 5/5=2,38=5/2;
 6/7=2,8=2,9=2,10=2,28=1/1;
 7//1,2,3,16;
 1/14=-1,18=20,19=15/3(2);
 2/9=110/2;
 99//99;
 2/9=110/2;
 3/5=7,6=1,11=2,16=1,25=1,30=1,71=1,74=-13,82=7/1,2,3;
 4/5=5,16=3/1;
 5/5=2,38=5/2;
 7//1,2,3,16;
 1/14=-1,18=20,19=15/3(-5);
 2/9=110/2;
 6/7=2,8=2,9=2,10=2,19=2,28=1/1;
 99/9=1/99;
 Leave Link    1 at Fri Apr  1 11:32:29 2011, MaxMem= 1610612736 cpu:       5.8
 (Enter /group/hpc-share/gaussian-2009-B01/g09/l101.exe)


 Symbolic Z-matrix:
 Charge =  1 Multiplicity = 1
 C                    -2.57723   1.05776   0.06643 
 S                    -2.06794  -0.6311   -0.19022 
 N                    -0.4344   -0.61345   0.01309 
 O                     0.11962   0.44963   0.28107 
 N                     0.71468  -3.16919  -0.29741 
 H                    -0.03946  -3.90185  -0.47152 
 H                     1.04415  -3.29288   0.65859 
 H                     0.28153  -2.24911  -0.35133 
 H                    -2.31216   1.37781   1.07367 
 H                    -3.65962   1.07084  -0.05932 
 H                    -2.10551   1.70595  -0.67148 
 C                     1.82811  -3.2992   -1.27328 
 H                     2.58544  -2.54691  -1.06785 
 H                     2.25609  -4.29403  -1.18028 
 H                     1.42955  -3.16344  -2.27543 
 
 NAtoms=     15 NQM=     15 NQMF=      0 NMic=      0 NMicF=      0 NTot=     15.
                    Isotopes and Nuclear Properties:
 (Nuclear quadrupole moments (NQMom) in fm**2, nuclear magnetic moments (NMagM)
  in nuclear magnetons)

  Atom         1           2           3           4           5           6           7           8           9          10
 IAtWgt=          12          32          14          16          14           1           1           1           1           1
 AtmWgt=  12.0000000  31.9720718  14.0030740  15.9949146  14.0030740   1.0078250   1.0078250   1.0078250   1.0078250   1.0078250
 NucSpn=           0           0           2           0           2           1           1           1           1           1
 AtZEff=   0.0000000   0.0000000   0.0000000   0.0000000   0.0000000   0.0000000   0.0000000   0.0000000   0.0000000   0.0000000
 NQMom=    0.0000000   0.0000000   2.0440000   0.0000000   2.0440000   0.0000000   0.0000000   0.0000000   0.0000000   0.0000000
 NMagM=    0.0000000   0.0000000   0.4037610   0.0000000   0.4037610   2.7928460   2.7928460   2.7928460   2.7928460   2.7928460

  Atom        11          12          13          14          15
 IAtWgt=           1          12           1           1           1
 AtmWgt=   1.0078250  12.0000000   1.0078250   1.0078250   1.0078250
 NucSpn=           1           0           1           1           1
 AtZEff=   0.0000000   0.0000000   0.0000000   0.0000000   0.0000000
 NQMom=    0.0000000   0.0000000   0.0000000   0.0000000   0.0000000
 NMagM=    2.7928460   0.0000000   2.7928460   2.7928460   2.7928460
 Leave Link  101 at Fri Apr  1 11:32:31 2011, MaxMem= 1610612736 cpu:       0.8
 (Enter /group/hpc-share/gaussian-2009-B01/g09/l103.exe)

 GradGradGradGradGradGradGradGradGradGradGradGradGradGradGradGradGradGrad
 Berny optimization.
 Initialization pass.
                           ----------------------------
                           !    Initial Parameters    !
                           ! (Angstroms and Degrees)  !
 --------------------------                            --------------------------
 ! Name  Definition              Value          Derivative Info.                !
 --------------------------------------------------------------------------------
 ! R1    R(1,2)                  1.7826         estimate D2E/DX2                !
 ! R2    R(1,9)                  1.0896         estimate D2E/DX2                !
 ! R3    R(1,10)                 1.0897         estimate D2E/DX2                !
 ! R4    R(1,11)                 1.0896         estimate D2E/DX2                !
 ! R5    R(2,3)                  1.6462         estimate D2E/DX2                !
 ! R6    R(3,4)                  1.2284         estimate D2E/DX2                !
 ! R7    R(3,8)                  1.8223         estimate D2E/DX2                !
 ! R8    R(5,6)                  1.0658         estimate D2E/DX2                !
 ! R9    R(5,7)                  1.0187         estimate D2E/DX2                !
 ! R10   R(5,8)                  1.0184         estimate D2E/DX2                !
 ! R11   R(5,12)                 1.4863         estimate D2E/DX2                !
 ! R12   R(12,13)                1.0871         estimate D2E/DX2                !
 ! R13   R(12,14)                1.087          estimate D2E/DX2                !
 ! R14   R(12,15)                1.087          estimate D2E/DX2                !
 ! A1    A(2,1,9)              109.9917         estimate D2E/DX2                !
 ! A2    A(2,1,10)             106.1729         estimate D2E/DX2                !
 ! A3    A(2,1,11)             110.0249         estimate D2E/DX2                !
 ! A4    A(9,1,10)             110.1681         estimate D2E/DX2                !
 ! A5    A(9,1,11)             110.2422         estimate D2E/DX2                !
 ! A6    A(10,1,11)            110.165          estimate D2E/DX2                !
 ! A7    A(1,2,3)              104.8071         estimate D2E/DX2                !
 ! A8    A(2,3,4)              118.9315         estimate D2E/DX2                !
 ! A9    A(2,3,8)              110.8255         estimate D2E/DX2                !
 ! A10   A(4,3,8)              130.0338         estimate D2E/DX2                !
 ! A11   A(6,5,7)              107.3792         estimate D2E/DX2                !
 ! A12   A(6,5,8)              108.1486         estimate D2E/DX2                !
 ! A13   A(6,5,12)             111.2665         estimate D2E/DX2                !
 ! A14   A(7,5,8)              107.2744         estimate D2E/DX2                !
 ! A15   A(7,5,12)             111.3008         estimate D2E/DX2                !
 ! A16   A(8,5,12)             111.279          estimate D2E/DX2                !
 ! A17   A(3,8,5)              165.3457         estimate D2E/DX2                !
 ! A18   A(5,12,13)            109.7125         estimate D2E/DX2                !
 ! A19   A(5,12,14)            108.5934         estimate D2E/DX2                !
 ! A20   A(5,12,15)            108.6467         estimate D2E/DX2                !
 ! A21   A(13,12,14)           110.0539         estimate D2E/DX2                !
 ! A22   A(13,12,15)           110.0742         estimate D2E/DX2                !
 ! A23   A(14,12,15)           109.7279         estimate D2E/DX2                !
 ! D1    D(9,1,2,3)            -60.5941         estimate D2E/DX2                !
 ! D2    D(10,1,2,3)          -179.7712         estimate D2E/DX2                !
 ! D3    D(11,1,2,3)            61.0377         estimate D2E/DX2                !
 ! D4    D(1,2,3,4)             -0.0333         estimate D2E/DX2                !
 ! D5    D(1,2,3,8)           -175.2979         estimate D2E/DX2                !
 ! D6    D(2,3,8,5)           -108.4801         estimate D2E/DX2                !
 ! D7    D(4,3,8,5)             76.9346         estimate D2E/DX2                !
 ! D8    D(6,5,8,3)            107.0204         estimate D2E/DX2                !
 ! D9    D(7,5,8,3)             -8.5179         estimate D2E/DX2                !
 ! D10   D(12,5,8,3)          -130.4807         estimate D2E/DX2                !
 ! D11   D(6,5,12,13)         -179.523          estimate D2E/DX2                !
 ! D12   D(6,5,12,14)          -59.202          estimate D2E/DX2                !
 ! D13   D(6,5,12,15)           60.0986         estimate D2E/DX2                !
 ! D14   D(7,5,12,13)          -59.8021         estimate D2E/DX2                !
 ! D15   D(7,5,12,14)           60.5189         estimate D2E/DX2                !
 ! D16   D(7,5,12,15)          179.8195         estimate D2E/DX2                !
 ! D17   D(8,5,12,13)           59.7945         estimate D2E/DX2                !
 ! D18   D(8,5,12,14)         -179.8845         estimate D2E/DX2                !
 ! D19   D(8,5,12,15)          -60.5839         estimate D2E/DX2                !
 --------------------------------------------------------------------------------
 Trust Radius=3.00D-01 FncErr=1.00D-07 GrdErr=1.00D-06
 Number of steps in this run=     66 maximum allowed number of steps=    100.
 GradGradGradGradGradGradGradGradGradGradGradGradGradGradGradGradGradGrad

 Leave Link  103 at Fri Apr  1 11:32:32 2011, MaxMem= 1610612736 cpu:       0.1
 (Enter /group/hpc-share/gaussian-2009-B01/g09/l202.exe)
                          Input orientation:                          
 ---------------------------------------------------------------------
 Center     Atomic      Atomic             Coordinates (Angstroms)
 Number     Number       Type             X           Y           Z
 ---------------------------------------------------------------------
      1          6           0       -2.577230    1.057760    0.066430
      2         16           0       -2.067940   -0.631100   -0.190220
      3          7           0       -0.434400   -0.613450    0.013090
      4          8           0        0.119620    0.449630    0.281070
      5          7           0        0.714680   -3.169190   -0.297410
      6          1           0       -0.039460   -3.901850   -0.471520
      7          1           0        1.044150   -3.292880    0.658590
      8          1           0        0.281530   -2.249110   -0.351330
      9          1           0       -2.312160    1.377810    1.073670
     10          1           0       -3.659620    1.070840   -0.059320
     11          1           0       -2.105510    1.705950   -0.671480
     12          6           0        1.828110   -3.299200   -1.273280
     13          1           0        2.585440   -2.546910   -1.067850
     14          1           0        2.256090   -4.294030   -1.180280
     15          1           0        1.429550   -3.163440   -2.275430
 ---------------------------------------------------------------------
                    Distance matrix (angstroms):
                    1          2          3          4          5
     1  C    0.000000
     2  S    1.782553   0.000000
     3  N    2.717997   1.646238   0.000000
     4  O    2.772885   2.485057   1.228369   0.000000
     5  N    5.369931   3.767806   2.819327   3.712761   0.000000
     6  H    5.597088   3.858972   3.347297   4.418945   1.065754
     7  H    5.691495   4.182183   3.127639   3.873456   1.018718
     8  H    4.391175   2.857258   1.822290   2.776570   1.018368
     9  H    1.089599   2.385955   2.935290   2.720898   5.631770
    10  H    1.089749   2.333919   3.639247   3.845052   6.096642
    11  H    1.089578   2.386383   2.939534   2.727067   5.644501
    12  C    6.339160   4.844686   3.739913   4.403257   1.486254
    13  H    6.397921   5.108278   3.745148   4.108419   2.116732
    14  H    7.318260   5.752783   4.712700   5.403921   2.102539
    15  H    6.273526   4.795131   3.900523   4.615830   2.103244
                    6          7          8          9         10
     6  H    0.000000
     7  H    1.679942   0.000000
     8  H    1.687907   1.640422   0.000000
     9  H    5.952108   5.766494   4.681068   0.000000
    10  H    6.164667   6.456229   5.161395   1.787049   0.000000
    11  H    5.979629   6.056215   4.630654   1.787716   1.786998
    12  C    2.119864   2.084887   2.084368   6.672663   7.119419
    13  H    3.013565   2.431592   2.431067   6.631442   7.287388
    14  H    2.434275   2.419203   2.961038   7.623580   8.064366
    15  H    2.440764   2.962054   2.419940   6.770511   6.981398
                   11         12         13         14         15
    11  H    0.000000
    12  C    6.394299   0.000000
    13  H    6.344205   1.087056   0.000000
    14  H    7.435200   1.086969   1.781443   0.000000
    15  H    6.227380   1.087008   1.781696   1.777851   0.000000
 Stoichiometry    C2H9N2OS(1+)
 Framework group  C1[X(C2H9N2OS)]
 Deg. of freedom    39
 Full point group                 C1      NOp   1
 Largest Abelian subgroup         C1      NOp   1
 Largest concise Abelian subgroup C1      NOp   1
                         Standard orientation:                         
 ---------------------------------------------------------------------
 Center     Atomic      Atomic             Coordinates (Angstroms)
 Number     Number       Type             X           Y           Z
 ---------------------------------------------------------------------
      1          6           0        2.900586   -0.014822    0.181168
      2         16           0        1.305552   -0.796952    0.034086
      3          7           0        0.242041    0.446781   -0.145282
      4          8           0        0.669500    1.598370   -0.148620
      5          7           0       -2.415785   -0.446265   -0.440291
      6          1           0       -2.455531   -1.511220   -0.451444
      7          1           0       -2.567035   -0.126104   -1.395490
      8          1           0       -1.473621   -0.166782   -0.173289
      9          1           0        3.118515    0.559039   -0.719064
     10          1           0        3.624468   -0.821101    0.297189
     11          1           0        2.918407    0.634694    1.055806
     12          6           0       -3.429760    0.121353    0.486324
     13          1           0       -3.372894    1.206823    0.471738
     14          1           0       -4.415191   -0.204629    0.163579
     15          1           0       -3.230704   -0.249253    1.488628
 ---------------------------------------------------------------------
 Rotational constants (GHZ):      5.9264150      1.0377812      0.9252534
 Leave Link  202 at Fri Apr  1 11:32:32 2011, MaxMem= 1610612736 cpu:       0.0
 (Enter /group/hpc-share/gaussian-2009-B01/g09/l301.exe)
 General basis read from cards:  (5D, 7F)
 Centers:   6  7  8  9 10 11 13 14 15
 S 3 1.00
     Exponent=  1.3010701000D+01 Coefficients=  1.9682158000D-02
     Exponent=  1.9622572000D+00 Coefficients=  1.3796524000D-01
     Exponent=  4.4453796000D-01 Coefficients=  4.7831935000D-01
 S 1 1.00
     Exponent=  1.2194962000D-01 Coefficients=  1.0000000000D+00
 ****
 Centers:   1 12
 S 5 1.00
     Exponent=  1.2384016938D+03 Coefficients=  5.4568832082D-03
     Exponent=  1.8629004992D+02 Coefficients=  4.0638409211D-02
     Exponent=  4.2251176346D+01 Coefficients=  1.8025593888D-01
     Exponent=  1.1676557932D+01 Coefficients=  4.6315121755D-01
     Exponent=  3.5930506482D+00 Coefficients=  4.4087173314D-01
 S 1 1.00
     Exponent=  4.0245147363D-01 Coefficients=  1.0000000000D+00
 S 1 1.00
     Exponent=  1.3090182668D-01 Coefficients=  1.0000000000D+00
 P 3 1.00
     Exponent=  9.4680970621D+00 Coefficients=  3.8387871728D-02
     Exponent=  2.0103545142D+00 Coefficients=  2.1117025112D-01
     Exponent=  5.4771004707D-01 Coefficients=  5.1328172114D-01
 P 1 1.00
     Exponent=  1.5268613795D-01 Coefficients=  1.0000000000D+00
 D 1 1.00
     Exponent=  8.0000000000D-01 Coefficients=  1.0000000000D+00
 ****
 Centers:   3  5
 S 5 1.00
     Exponent=  1.7128415853D+03 Coefficients= -5.3934125305D-03
     Exponent=  2.5764812677D+02 Coefficients= -4.0221581118D-02
     Exponent=  5.8458245853D+01 Coefficients= -1.7931144990D-01
     Exponent=  1.6198367905D+01 Coefficients= -4.6376317823D-01
     Exponent=  5.0052600809D+00 Coefficients= -4.4171422662D-01
 S 1 1.00
     Exponent=  5.8731856571D-01 Coefficients=  1.0000000000D+00
 S 1 1.00
     Exponent=  1.8764592253D-01 Coefficients=  1.0000000000D+00
 P 3 1.00
     Exponent=  1.3571470233D+01 Coefficients= -4.0072398852D-02
     Exponent=  2.9257372874D+00 Coefficients= -2.1807045028D-01
     Exponent=  7.9927750754D-01 Coefficients= -5.1294466049D-01
 P 1 1.00
     Exponent=  2.1954348034D-01 Coefficients=  1.0000000000D+00
 D 1 1.00
     Exponent=  1.0000000000D+00 Coefficients=  1.0000000000D+00
 ****
 Centers:   4
 S 5 1.00
     Exponent=  2.2661767785D+03 Coefficients= -5.3431809926D-03
     Exponent=  3.4087010191D+02 Coefficients= -3.9890039230D-02
     Exponent=  7.7363135167D+01 Coefficients= -1.7853911985D-01
     Exponent=  2.1479644940D+01 Coefficients= -4.6427684959D-01
     Exponent=  6.6589433124D+00 Coefficients= -4.4309745172D-01
 S 1 1.00
     Exponent=  8.0975975668D-01 Coefficients=  1.0000000000D+00
 S 1 1.00
     Exponent=  2.5530772234D-01 Coefficients=  1.0000000000D+00
 P 3 1.00
     Exponent=  1.7721504317D+01 Coefficients=  4.3394573193D-02
     Exponent=  3.8635505440D+00 Coefficients=  2.3094120765D-01
     Exponent=  1.0480920883D+00 Coefficients=  5.1375311064D-01
 P 1 1.00
     Exponent=  2.7641544411D-01 Coefficients=  1.0000000000D+00
 D 1 1.00
     Exponent=  1.2000000000D+00 Coefficients=  1.0000000000D+00
 ****
 Centers:   2
 S 5 1.00
     Exponent=  9.1849303010D+03 Coefficients= -2.2294387756D-03
     Exponent=  1.3815105503D+03 Coefficients= -1.6683029937D-02
     Exponent=  3.1387147580D+02 Coefficients= -7.5262436116D-02
     Exponent=  8.8053870623D+01 Coefficients= -1.9376827038D-01
     Exponent=  2.7039914905D+01 Coefficients= -1.7718020803D-01
 S 3 1.00
     Exponent=  4.5648731303D+01 Coefficients= -1.0736062573D-01
     Exponent=  4.9664522326D+00 Coefficients=  6.5066293018D-01
     Exponent=  2.0116242047D+00 Coefficients=  5.9712155354D-01
 S 1 1.00
     Exponent=  3.5661077013D-01 Coefficients=  1.0000000000D+00
 S 1 1.00
     Exponent=  1.3507221477D-01 Coefficients=  1.0000000000D+00
 P 5 1.00
     Exponent=  2.6198233439D+02 Coefficients= -9.2729929822D-03
     Exponent=  6.1306894736D+01 Coefficients= -6.6547669241D-02
     Exponent=  1.9103729887D+01 Coefficients= -2.4828595903D-01
     Exponent=  6.6567720378D+00 Coefficients= -4.8703847402D-01
     Exponent=  2.3959635161D+00 Coefficients= -3.9337850312D-01
 P 1 1.00
     Exponent=  6.1776161679D-01 Coefficients=  1.0000000000D+00
 P 1 1.00
     Exponent=  1.6993376871D-01 Coefficients=  1.0000000000D+00
 D 1 1.00
     Exponent=  5.5000000000D-01 Coefficients=  1.0000000000D+00
 D 1 1.00
     Exponent=  2.9940000000D+00 Coefficients=  1.0000000000D+00
 ****
 Ernie: Thresh=  0.10000D-02 Tol=  0.10000D-05 Strict=F.
 There are   111 symmetry adapted basis functions of A   symmetry.
 Integral buffers will be    131072 words long.
 Raffenetti 2 integral format.
 Two-electron integral symmetry is turned on.
   111 basis functions,   204 primitive gaussians,   118 cartesian basis functions
    29 alpha electrons       29 beta electrons
       nuclear repulsion energy       305.1304736163 Hartrees.
 IExCor= 1009 DFT=T Ex+Corr=PBE1PBE ExCW=0 ScaHFX=  0.250000
 ScaDFX=  0.750000  0.750000  1.000000  1.000000 ScalE2=  1.000000  1.000000
 IRadAn=      0 IRanWt=     -1 IRanGd=            0 ICorTp=0
 NAtoms=   15 NActive=   15 NUniq=   15 SFac= 1.00D+00 NAtFMM=   50 NAOKFM=F Big=F
 Leave Link  301 at Fri Apr  1 11:32:32 2011, MaxMem= 1610612736 cpu:       0.7
 (Enter /group/hpc-share/gaussian-2009-B01/g09/l302.exe)
 NPDir=0 NMtPBC=     1 NCelOv=     1 NCel=       1 NClECP=     1 NCelD=      1
         NCelK=      1 NCelE2=     1 NClLst=     1 CellRange=     0.0.
 One-electron integrals computed using PRISM.
 NBasis=   111 RedAO= T  NBF=   111
 NBsUse=   111 1.00D-06 NBFU=   111
 Precomputing XC quadrature grid using
 IXCGrd= 2 IRadAn=           0 IRanWt=          -1 IRanGd=           0 AccXCQ= 0.00D+00.
 NRdTot=     952 NPtTot=      121106 NUsed=      127978 NTot=      128010
 NSgBfM=   117   117   117   117   117 NAtAll=    15    15.
 Leave Link  302 at Fri Apr  1 11:32:33 2011, MaxMem= 1610612736 cpu:       3.9
 (Enter /group/hpc-share/gaussian-2009-B01/g09/l303.exe)
 DipDrv:  MaxL=1.
 Leave Link  303 at Fri Apr  1 11:32:33 2011, MaxMem= 1610612736 cpu:       0.6
 (Enter /group/hpc-share/gaussian-2009-B01/g09/l401.exe)
 Harris functional with IExCor= 1009 diagonalized for initial guess.
 ExpMin= 1.22D-01 ExpMax= 9.18D+03 ExpMxC= 1.38D+03 IAcc=1 IRadAn=         1 AccDes= 0.00D+00
 HarFok:  IExCor= 1009 AccDes= 0.00D+00 IRadAn=         1 IDoV= 1
 ScaDFX=  1.000000  1.000000  1.000000  1.000000
 FoFCou: FMM=F IPFlag=           0 FMFlag=      100000 FMFlg1=           0
         NFxFlg=           0 DoJE=T BraDBF=F KetDBF=T FulRan=T
         Omega=  0.000000  0.000000  1.000000  0.000000  0.000000 ICntrl=     500 IOpCl=  0
         NMat0=    1 NMatS0=    1 NMatT0=    0 NMatD0=    1 NMtDS0=    0 NMtDT0=    0
         I1Cent=           4 NGrid=           0.
 Petite list used in FoFCou.
 Harris En= -663.467978889259    
 Initial guess orbital symmetries:
       Occupied  (A) (A) (A) (A) (A) (A) (A) (A) (A) (A) (A) (A)
                 (A) (A) (A) (A) (A) (A) (A) (A) (A) (A) (A) (A)
                 (A) (A) (A) (A) (A)
       Virtual   (A) (A) (A) (A) (A) (A) (A) (A) (A) (A) (A) (A)
                 (A) (A) (A) (A) (A) (A) (A) (A) (A) (A) (A) (A)
                 (A) (A) (A) (A) (A) (A) (A) (A) (A) (A) (A) (A)
                 (A) (A) (A) (A) (A) (A) (A) (A) (A) (A) (A) (A)
                 (A) (A) (A) (A) (A) (A) (A) (A) (A) (A) (A) (A)
                 (A) (A) (A) (A) (A) (A) (A) (A) (A) (A) (A) (A)
                 (A) (A) (A) (A) (A) (A) (A) (A) (A) (A)
 The electronic state of the initial guess is 1-A.
 Leave Link  401 at Fri Apr  1 11:32:33 2011, MaxMem= 1610612736 cpu:       3.4
 (Enter /group/hpc-share/gaussian-2009-B01/g09/l502.exe)
 Closed shell SCF:
 Requested convergence on RMS density matrix=1.00D-08 within 128 cycles.
 Requested convergence on MAX density matrix=1.00D-06.
 Requested convergence on             energy=1.00D-06.
 No special actions if energy rises.
 Using DIIS extrapolation, IDIIS=  1040.
 Integral symmetry usage will be decided dynamically.
       127830 words used for storage of precomputed grid.
 Keep R1 ints in memory in canonical form, NReq=25779317.
 IEnd=      189598 IEndB=      189598 NGot=  1610612736 MDV=  1585803062
 LenX=  1585803062 LenY=  1585788697
 Symmetry not used in FoFDir.
 MinBra= 0 MaxBra= 2 Meth= 1.
 IRaf=       0 NMat=   1 IRICut=       1 DoRegI=T DoRafI=F ISym2E= 0 JSym2E=0.
 Integral accuracy reduced to 1.0D-05 until final iterations.

 Cycle   1  Pass 0  IDiag  1:
 E= -663.254270026813    
 DIIS: error= 3.51D-02 at cycle   1 NSaved=   1.
 NSaved= 1 IEnMin= 1 EnMin= -663.254270026813     IErMin= 1 ErrMin= 3.51D-02
 ErrMax= 3.51D-02 EMaxC= 1.00D-01 BMatC= 1.84D-01 BMatP= 1.84D-01
 IDIUse=3 WtCom= 6.49D-01 WtEn= 3.51D-01
 Coeff-Com:  0.100D+01
 Coeff-En:   0.100D+01
 Coeff:      0.100D+01
 Gap=     0.101 Goal=   None    Shift=    0.000
 GapD=    0.101 DampG=1.000 DampE=0.500 DampFc=0.5000 IDamp=-1.
 Damping current iteration by 5.00D-01
 RMSDP=1.27D-02 MaxDP=2.54D-01              OVMax= 4.07D-01

 Cycle   2  Pass 0  IDiag  1:
 E= -663.194775046585     Delta-E=        0.059494980228 Rises=F Damp=T
 DIIS: error= 3.39D-02 at cycle   2 NSaved=   2.
 NSaved= 2 IEnMin= 1 EnMin= -663.254270026813     IErMin= 2 ErrMin= 3.39D-02
 ErrMax= 3.39D-02 EMaxC= 1.00D-01 BMatC= 1.10D-01 BMatP= 1.84D-01
 IDIUse=3 WtCom= 6.61D-01 WtEn= 3.39D-01
 Coeff-Com:  0.419D+00 0.581D+00
 Coeff-En:   0.593D+00 0.407D+00
 Coeff:      0.478D+00 0.522D+00
 Gap=     0.247 Goal=   None    Shift=    0.000
 RMSDP=4.38D-03 MaxDP=8.09D-02 DE= 5.95D-02 OVMax= 3.15D-01

 Cycle   3  Pass 0  IDiag  1:
 E= -663.409295085482     Delta-E=       -0.214520038898 Rises=F Damp=F
 DIIS: error= 1.53D-02 at cycle   3 NSaved=   3.
 NSaved= 3 IEnMin= 3 EnMin= -663.409295085482     IErMin= 3 ErrMin= 1.53D-02
 ErrMax= 1.53D-02 EMaxC= 1.00D-01 BMatC= 2.96D-02 BMatP= 1.10D-01
 IDIUse=3 WtCom= 8.47D-01 WtEn= 1.53D-01
 Coeff-Com:  0.195D+00 0.304D+00 0.500D+00
 Coeff-En:   0.000D+00 0.000D+00 0.100D+01
 Coeff:      0.166D+00 0.258D+00 0.576D+00
 Gap=     0.168 Goal=   None    Shift=    0.000
 RMSDP=1.82D-03 MaxDP=4.92D-02 DE=-2.15D-01 OVMax= 6.49D-02

 Cycle   4  Pass 0  IDiag  1:
 E= -663.434079884191     Delta-E=       -0.024784798709 Rises=F Damp=F
 DIIS: error= 5.70D-03 at cycle   4 NSaved=   4.
 NSaved= 4 IEnMin= 4 EnMin= -663.434079884191     IErMin= 4 ErrMin= 5.70D-03
 ErrMax= 5.70D-03 EMaxC= 1.00D-01 BMatC= 4.44D-03 BMatP= 2.96D-02
 IDIUse=3 WtCom= 9.43D-01 WtEn= 5.70D-02
 Coeff-Com:  0.332D-01 0.296D-01 0.284D+00 0.653D+00
 Coeff-En:   0.000D+00 0.000D+00 0.101D+00 0.899D+00
 Coeff:      0.313D-01 0.279D-01 0.274D+00 0.667D+00
 Gap=     0.173 Goal=   None    Shift=    0.000
 RMSDP=6.46D-04 MaxDP=1.53D-02 DE=-2.48D-02 OVMax= 2.08D-02

 Cycle   5  Pass 0  IDiag  1:
 E= -663.438035589328     Delta-E=       -0.003955705137 Rises=F Damp=F
 DIIS: error= 1.02D-03 at cycle   5 NSaved=   5.
 NSaved= 5 IEnMin= 5 EnMin= -663.438035589328     IErMin= 5 ErrMin= 1.02D-03
 ErrMax= 1.02D-03 EMaxC= 1.00D-01 BMatC= 1.33D-04 BMatP= 4.44D-03
 IDIUse=3 WtCom= 9.90D-01 WtEn= 1.02D-02
 Coeff-Com:  0.299D-02-0.554D-02 0.825D-01 0.274D+00 0.646D+00
 Coeff-En:   0.000D+00 0.000D+00 0.000D+00 0.000D+00 0.100D+01
 Coeff:      0.296D-02-0.548D-02 0.816D-01 0.271D+00 0.650D+00
 Gap=     0.174 Goal=   None    Shift=    0.000
 RMSDP=1.58D-04 MaxDP=3.29D-03 DE=-3.96D-03 OVMax= 9.99D-03

 Cycle   6  Pass 0  IDiag  1:
 E= -663.438118734153     Delta-E=       -0.000083144825 Rises=F Damp=F
 DIIS: error= 7.68D-04 at cycle   6 NSaved=   6.
 NSaved= 6 IEnMin= 6 EnMin= -663.438118734153     IErMin= 6 ErrMin= 7.68D-04
 ErrMax= 7.68D-04 EMaxC= 1.00D-01 BMatC= 5.65D-05 BMatP= 1.33D-04
 IDIUse=3 WtCom= 9.92D-01 WtEn= 7.68D-03
 Coeff-Com: -0.308D-04-0.919D-02 0.261D-01 0.107D+00 0.425D+00 0.452D+00
 Coeff-En:   0.000D+00 0.000D+00 0.000D+00 0.000D+00 0.291D+00 0.709D+00
 Coeff:     -0.306D-04-0.912D-02 0.259D-01 0.106D+00 0.424D+00 0.454D+00
 Gap=     0.174 Goal=   None    Shift=    0.000
 RMSDP=8.36D-05 MaxDP=1.49D-03 DE=-8.31D-05 OVMax= 3.11D-03

 Cycle   7  Pass 0  IDiag  1:
 E= -663.438176932914     Delta-E=       -0.000058198760 Rises=F Damp=F
 DIIS: error= 2.34D-04 at cycle   7 NSaved=   7.
 NSaved= 7 IEnMin= 7 EnMin= -663.438176932914     IErMin= 7 ErrMin= 2.34D-04
 ErrMax= 2.34D-04 EMaxC= 1.00D-01 BMatC= 4.90D-06 BMatP= 5.65D-05
 IDIUse=3 WtCom= 9.98D-01 WtEn= 2.34D-03
 Coeff-Com:  0.799D-03-0.507D-02 0.535D-02 0.178D-01 0.130D+00 0.207D+00
 Coeff-Com:  0.644D+00
 Coeff-En:   0.000D+00 0.000D+00 0.000D+00 0.000D+00 0.000D+00 0.000D+00
 Coeff-En:   0.100D+01
 Coeff:      0.797D-03-0.506D-02 0.533D-02 0.178D-01 0.130D+00 0.206D+00
 Coeff:      0.645D+00
 Gap=     0.174 Goal=   None    Shift=    0.000
 RMSDP=1.85D-05 MaxDP=4.31D-04 DE=-5.82D-05 OVMax= 7.23D-04

 Cycle   8  Pass 0  IDiag  1:
 E= -663.438180356703     Delta-E=       -0.000003423789 Rises=F Damp=F
 DIIS: error= 1.10D-04 at cycle   8 NSaved=   8.
 NSaved= 8 IEnMin= 8 EnMin= -663.438180356703     IErMin= 8 ErrMin= 1.10D-04
 ErrMax= 1.10D-04 EMaxC= 1.00D-01 BMatC= 9.53D-07 BMatP= 4.90D-06
 IDIUse=3 WtCom= 9.99D-01 WtEn= 1.10D-03
 Coeff-Com:  0.926D-03-0.142D-02-0.497D-03-0.951D-02-0.176D-01-0.106D-01
 Coeff-Com:  0.236D+00 0.803D+00
 Coeff-En:   0.000D+00 0.000D+00 0.000D+00 0.000D+00 0.000D+00 0.000D+00
 Coeff-En:   0.000D+00 0.100D+01
 Coeff:      0.924D-03-0.141D-02-0.497D-03-0.950D-02-0.176D-01-0.106D-01
 Coeff:      0.236D+00 0.803D+00
 Gap=     0.174 Goal=   None    Shift=    0.000
 RMSDP=1.19D-05 MaxDP=2.41D-04 DE=-3.42D-06 OVMax= 4.73D-04

 Cycle   9  Pass 0  IDiag  1:
 E= -663.438181289274     Delta-E=       -0.000000932571 Rises=F Damp=F
 DIIS: error= 1.93D-05 at cycle   9 NSaved=   9.
 NSaved= 9 IEnMin= 9 EnMin= -663.438181289274     IErMin= 9 ErrMin= 1.93D-05
 ErrMax= 1.93D-05 EMaxC= 1.00D-01 BMatC= 3.94D-08 BMatP= 9.53D-07
 IDIUse=1 WtCom= 1.00D+00 WtEn= 0.00D+00
 Coeff-Com:  0.347D-03-0.282D-03-0.194D-04-0.340D-02-0.123D-01-0.151D-01
 Coeff-Com:  0.204D-01 0.229D+00 0.782D+00
 Coeff:      0.347D-03-0.282D-03-0.194D-04-0.340D-02-0.123D-01-0.151D-01
 Coeff:      0.204D-01 0.229D+00 0.782D+00
 Gap=     0.174 Goal=   None    Shift=    0.000
 RMSDP=2.00D-06 MaxDP=3.47D-05 DE=-9.33D-07 OVMax= 6.62D-05

 Initial convergence to 1.0D-05 achieved.  Increase integral accuracy.
 Cycle  10  Pass 1  IDiag  1:
 E= -663.438219953767     Delta-E=       -0.000038664494 Rises=F Damp=F
 DIIS: error= 1.17D-05 at cycle   1 NSaved=   1.
 NSaved= 1 IEnMin= 1 EnMin= -663.438219953767     IErMin= 1 ErrMin= 1.17D-05
 ErrMax= 1.17D-05 EMaxC= 1.00D-01 BMatC= 2.16D-08 BMatP= 2.16D-08
 IDIUse=1 WtCom= 1.00D+00 WtEn= 0.00D+00
 Coeff-Com:  0.100D+01
 Coeff:      0.100D+01
 Gap=     0.174 Goal=   None    Shift=    0.000
 RMSDP=2.00D-06 MaxDP=3.47D-05 DE=-3.87D-05 OVMax= 6.95D-05

 Cycle  11  Pass 1  IDiag  1:
 E= -663.438219970296     Delta-E=       -0.000000016528 Rises=F Damp=F
 DIIS: error= 9.76D-06 at cycle   2 NSaved=   2.
 NSaved= 2 IEnMin= 2 EnMin= -663.438219970296     IErMin= 2 ErrMin= 9.76D-06
 ErrMax= 9.76D-06 EMaxC= 1.00D-01 BMatC= 8.40D-09 BMatP= 2.16D-08
 IDIUse=1 WtCom= 1.00D+00 WtEn= 0.00D+00
 Coeff-Com:  0.307D+00 0.693D+00
 Coeff:      0.307D+00 0.693D+00
 Gap=     0.174 Goal=   None    Shift=    0.000
 RMSDP=1.81D-06 MaxDP=5.89D-05 DE=-1.65D-08 OVMax= 1.03D-04

 Cycle  12  Pass 1  IDiag  1:
 E= -663.438219960928     Delta-E=        0.000000009368 Rises=F Damp=F
 DIIS: error= 1.60D-05 at cycle   3 NSaved=   3.
 NSaved= 3 IEnMin= 2 EnMin= -663.438219970296     IErMin= 2 ErrMin= 9.76D-06
 ErrMax= 1.60D-05 EMaxC= 1.00D-01 BMatC= 1.96D-08 BMatP= 8.40D-09
 IDIUse=1 WtCom= 1.00D+00 WtEn= 0.00D+00
 Coeff-Com: -0.168D-01 0.614D+00 0.403D+00
 Coeff:     -0.168D-01 0.614D+00 0.403D+00
 Gap=     0.174 Goal=   None    Shift=    0.000
 RMSDP=1.14D-06 MaxDP=3.69D-05 DE= 9.37D-09 OVMax= 6.28D-05

 Cycle  13  Pass 1  IDiag  1:
 E= -663.438219977645     Delta-E=       -0.000000016717 Rises=F Damp=F
 DIIS: error= 1.08D-06 at cycle   4 NSaved=   4.
 NSaved= 4 IEnMin= 4 EnMin= -663.438219977645     IErMin= 4 ErrMin= 1.08D-06
 ErrMax= 1.08D-06 EMaxC= 1.00D-01 BMatC= 1.16D-10 BMatP= 8.40D-09
 IDIUse=1 WtCom= 1.00D+00 WtEn= 0.00D+00
 Coeff-Com: -0.167D-01 0.279D+00 0.188D+00 0.550D+00
 Coeff:     -0.167D-01 0.279D+00 0.188D+00 0.550D+00
 Gap=     0.174 Goal=   None    Shift=    0.000
 RMSDP=1.04D-07 MaxDP=2.15D-06 DE=-1.67D-08 OVMax= 3.96D-06

 Cycle  14  Pass 1  IDiag  1:
 E= -663.438219977745     Delta-E=       -0.000000000101 Rises=F Damp=F
 DIIS: error= 2.57D-07 at cycle   5 NSaved=   5.
 NSaved= 5 IEnMin= 5 EnMin= -663.438219977745     IErMin= 5 ErrMin= 2.57D-07
 ErrMax= 2.57D-07 EMaxC= 1.00D-01 BMatC= 1.01D-11 BMatP= 1.16D-10
 IDIUse=1 WtCom= 1.00D+00 WtEn= 0.00D+00
 Coeff-Com: -0.397D-02 0.542D-01 0.329D-01 0.243D+00 0.673D+00
 Coeff:     -0.397D-02 0.542D-01 0.329D-01 0.243D+00 0.673D+00
 Gap=     0.174 Goal=   None    Shift=    0.000
 RMSDP=5.03D-08 MaxDP=1.10D-06 DE=-1.01D-10 OVMax= 2.29D-06

 Cycle  15  Pass 1  IDiag  1:
 E= -663.438219977752     Delta-E=       -0.000000000007 Rises=F Damp=F
 DIIS: error= 1.78D-07 at cycle   6 NSaved=   6.
 NSaved= 6 IEnMin= 6 EnMin= -663.438219977752     IErMin= 6 ErrMin= 1.78D-07
 ErrMax= 1.78D-07 EMaxC= 1.00D-01 BMatC= 3.17D-12 BMatP= 1.01D-11
 IDIUse=1 WtCom= 1.00D+00 WtEn= 0.00D+00
 Coeff-Com: -0.119D-02 0.591D-02 0.228D-02 0.928D-01 0.424D+00 0.476D+00
 Coeff:     -0.119D-02 0.591D-02 0.228D-02 0.928D-01 0.424D+00 0.476D+00
 Gap=     0.174 Goal=   None    Shift=    0.000
 RMSDP=1.82D-08 MaxDP=3.72D-07 DE=-6.82D-12 OVMax= 8.81D-07

 Cycle  16  Pass 1  IDiag  1:
 E= -663.438219977758     Delta-E=       -0.000000000006 Rises=F Damp=F
 DIIS: error= 3.05D-08 at cycle   7 NSaved=   7.
 NSaved= 7 IEnMin= 7 EnMin= -663.438219977758     IErMin= 7 ErrMin= 3.05D-08
 ErrMax= 3.05D-08 EMaxC= 1.00D-01 BMatC= 1.78D-13 BMatP= 3.17D-12
 IDIUse=1 WtCom= 1.00D+00 WtEn= 0.00D+00
 Coeff-Com: -0.869D-04-0.409D-02-0.298D-02 0.183D-01 0.138D+00 0.237D+00
 Coeff-Com:  0.614D+00
 Coeff:     -0.869D-04-0.409D-02-0.298D-02 0.183D-01 0.138D+00 0.237D+00
 Coeff:      0.614D+00
 Gap=     0.174 Goal=   None    Shift=    0.000
 RMSDP=5.13D-09 MaxDP=9.90D-08 DE=-5.91D-12 OVMax= 2.48D-07

 SCF Done:  E(RPBE1PBE) =  -663.438219978     A.U. after   16 cycles
             Convg  =    0.5126D-08             -V/T =  2.0039
 KE= 6.608863536184D+02 PE=-2.165956450234D+03 EE= 5.365014030214D+02
 Leave Link  502 at Fri Apr  1 11:32:42 2011, MaxMem= 1610612736 cpu:      56.3
 (Enter /group/hpc-share/gaussian-2009-B01/g09/l601.exe)
 Copying SCF densities to generalized density rwf, IOpCl= 0 IROHF=0.

 **********************************************************************

            Population analysis using the SCF density.

 **********************************************************************

 Orbital symmetries:
       Occupied  (A) (A) (A) (A) (A) (A) (A) (A) (A) (A) (A) (A)
                 (A) (A) (A) (A) (A) (A) (A) (A) (A) (A) (A) (A)
                 (A) (A) (A) (A) (A)
       Virtual   (A) (A) (A) (A) (A) (A) (A) (A) (A) (A) (A) (A)
                 (A) (A) (A) (A) (A) (A) (A) (A) (A) (A) (A) (A)
                 (A) (A) (A) (A) (A) (A) (A) (A) (A) (A) (A) (A)
                 (A) (A) (A) (A) (A) (A) (A) (A) (A) (A) (A) (A)
                 (A) (A) (A) (A) (A) (A) (A) (A) (A) (A) (A) (A)
                 (A) (A) (A) (A) (A) (A) (A) (A) (A) (A) (A) (A)
                 (A) (A) (A) (A) (A) (A) (A) (A) (A) (A)
 The electronic state is 1-A.
 Alpha  occ. eigenvalues --  -89.19987 -19.40587 -14.68552 -14.67171 -10.45712
 Alpha  occ. eigenvalues --  -10.39498  -8.20257  -6.14497  -6.13892  -6.13646
 Alpha  occ. eigenvalues --   -1.31989  -1.20318  -1.02515  -0.92009  -0.89486
 Alpha  occ. eigenvalues --   -0.79222  -0.78432  -0.74128  -0.69561  -0.66288
 Alpha  occ. eigenvalues --   -0.63935  -0.63624  -0.60904  -0.60500  -0.58231
 Alpha  occ. eigenvalues --   -0.56895  -0.51357  -0.43449  -0.40704
 Alpha virt. eigenvalues --   -0.23273  -0.15178  -0.11820  -0.08936  -0.06731
 Alpha virt. eigenvalues --   -0.05925  -0.02942  -0.01634  -0.01510  -0.01211
 Alpha virt. eigenvalues --    0.00919   0.01505   0.04110   0.12174   0.22108
 Alpha virt. eigenvalues --    0.22853   0.24016   0.26160   0.26483   0.29943
 Alpha virt. eigenvalues --    0.32220   0.38118   0.40469   0.40877   0.43269
 Alpha virt. eigenvalues --    0.47904   0.49819   0.51401   0.52458   0.52901
 Alpha virt. eigenvalues --    0.53758   0.54781   0.55990   0.56681   0.57647
 Alpha virt. eigenvalues --    0.58286   0.59796   0.61103   0.63771   0.65477
 Alpha virt. eigenvalues --    0.66109   0.69595   0.77558   0.78859   0.84314
 Alpha virt. eigenvalues --    0.86820   0.88553   0.95314   0.96489   1.03277
 Alpha virt. eigenvalues --    1.12890   1.25660   1.40946   1.41791   1.56185
 Alpha virt. eigenvalues --    1.58462   1.75041   1.76220   1.85737   1.87154
 Alpha virt. eigenvalues --    1.87649   1.95337   1.97519   1.98725   2.02122
 Alpha virt. eigenvalues --    2.10853   2.11929   2.29137   2.31732   2.40337
 Alpha virt. eigenvalues --    2.43128   2.50952   2.55761   2.62905   3.01025
 Alpha virt. eigenvalues --    3.07136   3.49835   4.47999   4.50063   4.58060
 Alpha virt. eigenvalues --    4.63483   4.80843
          Condensed to atoms (all electrons):
              1          2          3          4          5          6
     1  C    5.078714   0.248878  -0.025187   0.022936  -0.000064   0.000001
     2  S    0.248878  15.596216   0.139702  -0.124356   0.006824   0.000387
     3  N   -0.025187   0.139702   6.672174   0.298392  -0.063720   0.001408
     4  O    0.022936  -0.124356   0.298392   7.983673   0.001104  -0.000015
     5  N   -0.000064   0.006824  -0.063720   0.001104   6.376616   0.318652
     6  H    0.000001   0.000387   0.001408  -0.000015   0.318652   0.368072
     7  H    0.000002  -0.000074   0.001957  -0.000030   0.329738  -0.012895
     8  H    0.001382  -0.024201   0.114475  -0.007814   0.256262  -0.003984
     9  H    0.378536  -0.025297  -0.003912   0.006592  -0.000004   0.000001
    10  H    0.379353  -0.024331   0.001963   0.000822   0.000000   0.000000
    11  H    0.378698  -0.025325  -0.003975   0.006580  -0.000002   0.000001
    12  C    0.000001  -0.000089   0.001525  -0.000058   0.280637  -0.017524
    13  H    0.000000  -0.000001   0.000283   0.000154  -0.016098   0.003133
    14  H    0.000000   0.000003  -0.000054   0.000002  -0.017919  -0.003338
    15  H    0.000000   0.000066   0.000139  -0.000015  -0.017850  -0.002947
              7          8          9         10         11         12
     1  C    0.000002   0.001382   0.378536   0.379353   0.378698   0.000001
     2  S   -0.000074  -0.024201  -0.025297  -0.024331  -0.025325  -0.000089
     3  N    0.001957   0.114475  -0.003912   0.001963  -0.003975   0.001525
     4  O   -0.000030  -0.007814   0.006592   0.000822   0.006580  -0.000058
     5  N    0.329738   0.256262  -0.000004   0.000000  -0.000002   0.280637
     6  H   -0.012895  -0.003984   0.000001   0.000000   0.000001  -0.017524
     7  H    0.369739  -0.008936   0.000000   0.000000   0.000000  -0.015811
     8  H   -0.008936   0.374359   0.000055  -0.000002   0.000014  -0.009547
     9  H    0.000000   0.000055   0.445326  -0.010105  -0.013433   0.000000
    10  H    0.000000  -0.000002  -0.010105   0.442570  -0.010210   0.000000
    11  H    0.000000   0.000014  -0.013433  -0.010210   0.445822   0.000000
    12  C   -0.015811  -0.009547   0.000000   0.000000   0.000000   4.861014
    13  H   -0.002946  -0.002622   0.000000   0.000000   0.000000   0.393370
    14  H   -0.003347   0.002683   0.000000   0.000000   0.000000   0.396010
    15  H    0.003452  -0.002727   0.000000   0.000000   0.000000   0.394761
             13         14         15
     1  C    0.000000   0.000000   0.000000
     2  S   -0.000001   0.000003   0.000066
     3  N    0.000283  -0.000054   0.000139
     4  O    0.000154   0.000002  -0.000015
     5  N   -0.016098  -0.017919  -0.017850
     6  H    0.003133  -0.003338  -0.002947
     7  H   -0.002946  -0.003347   0.003452
     8  H   -0.002622   0.002683  -0.002727
     9  H    0.000000   0.000000   0.000000
    10  H    0.000000   0.000000   0.000000
    11  H    0.000000   0.000000   0.000000
    12  C    0.393370   0.396010   0.394761
    13  H    0.434254  -0.013465  -0.012368
    14  H   -0.013465   0.446573  -0.014153
    15  H   -0.012368  -0.014153   0.444524
 Mulliken atomic charges:
              1
     1  C   -0.463247
     2  S    0.231601
     3  N   -0.135169
     4  O   -0.187967
     5  N   -0.454175
     6  H    0.349050
     7  H    0.339150
     8  H    0.310603
     9  H    0.222243
    10  H    0.219940
    11  H    0.221829
    12  C   -0.284290
    13  H    0.216307
    14  H    0.207007
    15  H    0.207119
 Sum of Mulliken atomic charges =   1.00000
 Mulliken charges with hydrogens summed into heavy atoms:
              1
     1  C    0.200765
     2  S    0.231601
     3  N   -0.135169
     4  O   -0.187967
     5  N    0.544628
    12  C    0.346143
 Sum of Mulliken charges with hydrogens summed into heavy atoms =   1.00000
 Electronic spatial extent (au):  <R**2>=           1233.4174
 Charge=              1.0000 electrons
 Dipole moment (field-independent basis, Debye):
    X=             -6.6455    Y=             -3.0076    Z=             -0.9013  Tot=              7.3499
 Quadrupole moment (field-independent basis, Debye-Ang):
   XX=              2.0249   YY=            -41.6360   ZZ=            -38.6492
   XY=              2.2924   XZ=              3.6509   YZ=              1.1128
 Traceless Quadrupole moment (field-independent basis, Debye-Ang):
   XX=             28.1117   YY=            -15.5492   ZZ=            -12.5624
   XY=              2.2924   XZ=              3.6509   YZ=              1.1128
 Octapole moment (field-independent basis, Debye-Ang**2):
  XXX=            -65.0445  YYY=             -6.1961  ZZZ=             -4.7821  XYY=            -11.0173
  XXY=            -11.9976  XXZ=             -3.4055  XZZ=            -10.5610  YZZ=              2.2208
  YYZ=             -0.9111  XYZ=             -3.1024
 Hexadecapole moment (field-independent basis, Debye-Ang**3):
 XXXX=           -819.6890 YYYY=           -195.6390 ZZZZ=            -67.5574 XXXY=             13.2512
 XXXZ=             17.9839 YYYX=             10.5632 YYYZ=              3.7923 ZZZX=             10.3596
 ZZZY=             -0.0092 XXYY=           -211.0001 XXZZ=           -192.2919 YYZZ=            -44.7725
 XXYZ=              5.3981 YYXZ=              5.2349 ZZXY=              8.2685
 N-N= 3.051304736163D+02 E-N=-2.165956451739D+03  KE= 6.608863536184D+02
 No NMR shielding tensors so no spin-rotation constants.
 Leave Link  601 at Fri Apr  1 11:32:43 2011, MaxMem= 1610612736 cpu:       2.6
 (Enter /group/hpc-share/gaussian-2009-B01/g09/l701.exe)
 Compute integral first derivatives.
 ... and contract with generalized density number  0.
 Leave Link  701 at Fri Apr  1 11:32:44 2011, MaxMem= 1610612736 cpu:       1.6
 (Enter /group/hpc-share/gaussian-2009-B01/g09/l702.exe)
 L702 exits ... SP integral derivatives will be done elsewhere.
 Leave Link  702 at Fri Apr  1 11:32:45 2011, MaxMem= 1610612736 cpu:       0.2
 (Enter /group/hpc-share/gaussian-2009-B01/g09/l703.exe)
 Compute integral first derivatives, UseDBF=F ICtDFT=           0.
 Integral derivatives from FoFDir, PRISM(SPDF).
 Calling FoFJK, ICntrl=      2127 FMM=F ISym2X=0 I1Cent= 0 IOpClX= 0 NMat=1 NMatS=1 NMatT=0.
 FoFCou: FMM=F IPFlag=           0 FMFlag=      100000 FMFlg1=         800
         NFxFlg=           0 DoJE=F BraDBF=F KetDBF=F FulRan=T
         Omega=  0.000000  0.000000  1.000000  0.000000  0.000000 ICntrl=    2127 IOpCl=  0
         NMat0=    1 NMatS0=    1 NMatT0=    0 NMatD0=    1 NMtDS0=    0 NMtDT0=    0
         I1Cent=           0 NGrid=           0.
 Symmetry not used in FoFCou.
 Leave Link  703 at Fri Apr  1 11:32:47 2011, MaxMem= 1610612736 cpu:       8.3
 (Enter /group/hpc-share/gaussian-2009-B01/g09/l716.exe)
 Dipole        =-2.61452863D+00-1.18328561D+00-3.54605158D-01
 ***** Axes restored to original set *****
 -------------------------------------------------------------------
 Center     Atomic                   Forces (Hartrees/Bohr)
 Number     Number              X              Y              Z
 -------------------------------------------------------------------
      1        6           0.003920557   -0.008083883   -0.000797378
      2       16          -0.020231813   -0.004157351   -0.002917698
      3        7           0.026993200    0.041145267    0.007374254
      4        8          -0.011400165   -0.035731283   -0.007422666
      5        7          -0.003806877   -0.046636188   -0.015524566
      6        1           0.017778685    0.017095493    0.005048574
      7        1           0.001851048   -0.000861823    0.009458794
      8        1          -0.014428860    0.031901086    0.005203191
      9        1           0.002350498    0.002847453    0.007960067
     10        1          -0.008436964   -0.000002834   -0.000961040
     11        1           0.004102502    0.005348533   -0.005690376
     12        6          -0.004961931   -0.003876024    0.003251462
     13        1           0.004592657    0.006834382    0.002883845
     14        1           0.004638437   -0.007520919   -0.000072932
     15        1          -0.002960973    0.001698092   -0.007793532
 -------------------------------------------------------------------
 Cartesian Forces:  Max     0.046636188 RMS     0.014428970
 Leave Link  716 at Fri Apr  1 11:32:47 2011, MaxMem= 1610612736 cpu:       0.3
 (Enter /group/hpc-share/gaussian-2009-B01/g09/l103.exe)

 GradGradGradGradGradGradGradGradGradGradGradGradGradGradGradGradGradGrad
 Berny optimization.
 Internal  Forces:  Max     0.037684407 RMS     0.009012912
 Search for a local minimum.
 Step number   1 out of a maximum of   66
 All quantities printed in internal units (Hartrees-Bohrs-Radians)
 RMS Force = .90129D-02 SwitMx=.10000D-02 MixMth= 1
 Mixed Optimization -- RFO/linear search
 Second derivative matrix not updated -- first step.
 ITU=  0
     Eigenvalues ---    0.00230   0.00551   0.00601   0.00785   0.01039
     Eigenvalues ---    0.02007   0.04922   0.05392   0.05868   0.05945
     Eigenvalues ---    0.06078   0.09989   0.10417   0.11482   0.13836
     Eigenvalues ---    0.15990   0.16000   0.16000   0.16000   0.16000
     Eigenvalues ---    0.16000   0.16000   0.16000   0.21971   0.25000
     Eigenvalues ---    0.25000   0.27541   0.33863   0.34842   0.34859
     Eigenvalues ---    0.34861   0.35155   0.35161   0.35165   0.37772
     Eigenvalues ---    0.43224   0.44543   0.44599   0.91769
 RFO step:  Lambda=-9.78649240D-03 EMin= 2.30000000D-03
 Linear search not attempted -- first point.
 Iteration  1 RMS(Cart)=  0.04933498 RMS(Int)=  0.00093062
 Iteration  2 RMS(Cart)=  0.00161275 RMS(Int)=  0.00048758
 Iteration  3 RMS(Cart)=  0.00000079 RMS(Int)=  0.00048758
 Variable       Old X    -DE/DX   Delta X   Delta X   Delta X     New X
                                 (Linear)    (Quad)   (Total)
    R1        3.36854  -0.00038   0.00000  -0.00133  -0.00133   3.36721
    R2        2.05904   0.00877   0.00000   0.02446   0.02446   2.08350
    R3        2.05933   0.00849   0.00000   0.02371   0.02371   2.08303
    R4        2.05900   0.00881   0.00000   0.02458   0.02458   2.08359
    R5        3.11094   0.01850   0.00000   0.04185   0.04185   3.15279
    R6        2.32128  -0.03768   0.00000  -0.04063  -0.04063   2.28065
    R7        3.44363   0.00180   0.00000   0.02622   0.02622   3.46985
    R8        2.01398  -0.02516   0.00000  -0.06492  -0.06492   1.94906
    R9        1.92510   0.00958   0.00000   0.02105   0.02105   1.94614
   R10        1.92444   0.03720   0.00000   0.08161   0.08161   2.00605
   R11        2.80861   0.00237   0.00000   0.00680   0.00680   2.81541
   R12        2.05424   0.00847   0.00000   0.02345   0.02345   2.07769
   R13        2.05407   0.00870   0.00000   0.02408   0.02408   2.07815
   R14        2.05415   0.00848   0.00000   0.02347   0.02347   2.07762
    A1        1.91972   0.00020   0.00000   0.00092   0.00092   1.92064
    A2        1.85307  -0.00005   0.00000   0.00017   0.00017   1.85323
    A3        1.92030  -0.00001   0.00000  -0.00027  -0.00028   1.92002
    A4        1.92280   0.00011   0.00000   0.00108   0.00108   1.92387
    A5        1.92409  -0.00045   0.00000  -0.00350  -0.00350   1.92059
    A6        1.92274   0.00022   0.00000   0.00178   0.00178   1.92452
    A7        1.82923  -0.00656   0.00000  -0.02526  -0.02526   1.80397
    A8        2.07575   0.00669   0.00000   0.03104   0.02952   2.10527
    A9        1.93427   0.00153   0.00000   0.01690   0.01538   1.94965
   A10        2.26952  -0.00805   0.00000  -0.03980  -0.04130   2.22822
   A11        1.87412  -0.00065   0.00000  -0.00794  -0.00795   1.86617
   A12        1.88755  -0.00029   0.00000   0.00079   0.00073   1.88828
   A13        1.94197   0.00022   0.00000   0.00390   0.00388   1.94584
   A14        1.87229  -0.00134   0.00000  -0.01096  -0.01097   1.86132
   A15        1.94257   0.00076   0.00000   0.00425   0.00427   1.94683
   A16        1.94218   0.00118   0.00000   0.00880   0.00878   1.95096
   A17        2.88583   0.00558   0.00000   0.02148   0.02148   2.90730
   A18        1.91484  -0.00366   0.00000  -0.02486  -0.02486   1.88998
   A19        1.89531   0.00295   0.00000   0.02056   0.02056   1.91587
   A20        1.89624   0.00021   0.00000   0.00129   0.00115   1.89740
   A21        1.92080   0.00028   0.00000   0.00147   0.00161   1.92242
   A22        1.92116   0.00074   0.00000  -0.00214  -0.00227   1.91888
   A23        1.91511  -0.00050   0.00000   0.00392   0.00378   1.91889
    D1       -1.05757   0.00019   0.00000   0.00030   0.00030  -1.05727
    D2       -3.13760  -0.00002   0.00000  -0.00157  -0.00157  -3.13917
    D3        1.06531  -0.00025   0.00000  -0.00365  -0.00365   1.06166
    D4       -0.00058   0.00038   0.00000   0.03389   0.03519   0.03461
    D5       -3.05953  -0.00103   0.00000  -0.05574  -0.05705  -3.11657
    D6       -1.89334   0.00110   0.00000   0.03677   0.03556  -1.85778
    D7        1.34276  -0.00151   0.00000  -0.07059  -0.06938   1.27339
    D8        1.86786  -0.00069   0.00000  -0.00174  -0.00173   1.86613
    D9       -0.14866   0.00091   0.00000   0.01272   0.01269  -0.13598
   D10       -2.27732   0.00014   0.00000   0.00927   0.00929  -2.26803
   D11       -3.13327  -0.00015   0.00000  -0.00277  -0.00268  -3.13594
   D12       -1.03327  -0.00020   0.00000  -0.00329  -0.00335  -1.03662
   D13        1.04892   0.00102   0.00000   0.01400   0.01401   1.06293
   D14       -1.04374  -0.00033   0.00000  -0.00734  -0.00727  -1.05102
   D15        1.05625  -0.00038   0.00000  -0.00787  -0.00795   1.04830
   D16        3.13844   0.00084   0.00000   0.00942   0.00942  -3.13533
   D17        1.04361  -0.00073   0.00000  -0.01246  -0.01239   1.03122
   D18       -3.13958  -0.00078   0.00000  -0.01299  -0.01307   3.13054
   D19       -1.05739   0.00044   0.00000   0.00430   0.00429  -1.05309
         Item               Value     Threshold  Converged?
 Maximum Force            0.037684     0.000450     NO 
 RMS     Force            0.009013     0.000300     NO 
 Maximum Displacement     0.126814     0.001800     NO 
 RMS     Displacement     0.048578     0.001200     NO 
 Predicted change in Energy=-5.070478D-03
 GradGradGradGradGradGradGradGradGradGradGradGradGradGradGradGradGradGrad

 Leave Link  103 at Fri Apr  1 11:32:47 2011, MaxMem= 1610612736 cpu:       0.4
 (Enter /group/hpc-share/gaussian-2009-B01/g09/l202.exe)
                          Input orientation:                          
 ---------------------------------------------------------------------
 Center     Atomic      Atomic             Coordinates (Angstroms)
 Number     Number       Type             X           Y           Z
 ---------------------------------------------------------------------
      1          6           0       -2.596555    1.082176    0.087342
      2         16           0       -2.128378   -0.609457   -0.219548
      3          7           0       -0.468389   -0.586133   -0.054017
      4          8           0        0.104851    0.431402    0.250200
      5          7           0        0.724991   -3.194234   -0.306842
      6          1           0       -0.000684   -3.908510   -0.471119
      7          1           0        1.040999   -3.306350    0.666898
      8          1           0        0.268913   -2.237750   -0.370316
      9          1           0       -2.292366    1.379898    1.104411
     10          1           0       -3.694042    1.119412   -0.008507
     11          1           0       -2.125435    1.745032   -0.657217
     12          6           0        1.854764   -3.332897   -1.268112
     13          1           0        2.596834   -2.553449   -1.043118
     14          1           0        2.309283   -4.329144   -1.166761
     15          1           0        1.468065   -3.199166   -2.288564
 ---------------------------------------------------------------------
                    Distance matrix (angstroms):
                    1          2          3          4          5
     1  C    0.000000
     2  S    1.781851   0.000000
     3  N    2.707827   1.668384   0.000000
     4  O    2.783455   2.508258   1.206868   0.000000
     5  N    5.429156   3.851027   2.879283   3.720230   0.000000
     6  H    5.653085   3.933716   3.380963   4.400713   1.031398
     7  H    5.729471   4.254876   3.193361   3.875669   1.029855
     8  H    4.409339   2.901909   1.836164   2.745238   1.061555
     9  H    1.102543   2.395265   2.921323   2.715873   5.658513
    10  H    1.102294   2.341972   3.649081   3.869350   6.182589
    11  H    1.102588   2.394823   2.923009   2.742845   5.713496
    12  C    6.414388   4.937817   3.796812   4.420116   1.489850
    13  H    6.439487   5.175423   3.774155   4.097803   2.111043
    14  H    7.410965   5.867377   4.792055   5.434160   2.130131
    15  H    6.363643   4.890994   3.946010   4.635160   2.116460
                    6          7          8          9         10
     6  H    0.000000
     7  H    1.656135   0.000000
     8  H    1.695371   1.677449   0.000000
     9  H    5.975062   5.767466   4.671440   0.000000
    10  H    6.255790   6.516453   5.206387   1.808629   0.000000
    11  H    6.042494   6.107049   4.655939   1.806799   1.809075
    12  C    2.099813   2.099329   2.126102   6.711035   7.224882
    13  H    2.985041   2.431386   2.443674   6.632298   7.357680
    14  H    2.448836   2.452949   3.028425   7.676363   8.189519
    15  H    2.442027   2.988082   2.458040   6.827954   7.106063
                   11         12         13         14         15
    11  H    0.000000
    12  C    6.480782   0.000000
    13  H    6.397318   1.099467   0.000000
    14  H    7.538034   1.099712   1.803071   0.000000
    15  H    6.326107   1.099428   1.800612   1.800816   0.000000
 Stoichiometry    C2H9N2OS(1+)
 Framework group  C1[X(C2H9N2OS)]
 Deg. of freedom    39
 Full point group                 C1      NOp   1
 Largest Abelian subgroup         C1      NOp   1
 Largest concise Abelian subgroup C1      NOp   1
                         Standard orientation:                         
 ---------------------------------------------------------------------
 Center     Atomic      Atomic             Coordinates (Angstroms)
 Number     Number       Type             X           Y           Z
 ---------------------------------------------------------------------
      1          6           0        2.923032    0.020076    0.140730
      2         16           0        1.349134   -0.810435    0.050785
      3          7           0        0.258929    0.444174   -0.093835
      4          8           0        0.641330    1.587457   -0.150429
      5          7           0       -2.453534   -0.456048   -0.443719
      6          1           0       -2.492999   -1.486638   -0.454070
      7          1           0       -2.588869   -0.141089   -1.414846
      8          1           0       -1.471907   -0.164796   -0.163579
      9          1           0        3.094487    0.605392   -0.777752
     10          1           0        3.683513   -0.772246    0.235313
     11          1           0        2.950187    0.682646    1.021618
     12          6           0       -3.482277    0.120384    0.466813
     13          1           0       -3.397647    1.216077    0.433294
     14          1           0       -4.484891   -0.192221    0.140610
     15          1           0       -3.290959   -0.239463    1.487916
 ---------------------------------------------------------------------
 Rotational constants (GHZ):      5.9440098      1.0103801      0.9023334
 Leave Link  202 at Fri Apr  1 11:32:47 2011, MaxMem= 1610612736 cpu:       0.0
 (Enter /group/hpc-share/gaussian-2009-B01/g09/l301.exe)
 Basis read from rwf:  (5D, 7F)
 No pseudopotential information found on rwf file.
 There are   111 symmetry adapted basis functions of A   symmetry.
 Integral buffers will be    131072 words long.
 Raffenetti 2 integral format.
 Two-electron integral symmetry is turned on.
   111 basis functions,   204 primitive gaussians,   118 cartesian basis functions
    29 alpha electrons       29 beta electrons
       nuclear repulsion energy       303.1078456914 Hartrees.
 IExCor= 1009 DFT=T Ex+Corr=PBE1PBE ExCW=0 ScaHFX=  0.250000
 ScaDFX=  0.750000  0.750000  1.000000  1.000000 ScalE2=  1.000000  1.000000
 IRadAn=      0 IRanWt=     -1 IRanGd=            0 ICorTp=0
 NAtoms=   15 NActive=   15 NUniq=   15 SFac= 1.00D+00 NAtFMM=   50 NAOKFM=F Big=F
 No density basis found on file   724.
 Leave Link  301 at Fri Apr  1 11:32:48 2011, MaxMem= 1610612736 cpu:       0.5
 (Enter /group/hpc-share/gaussian-2009-B01/g09/l302.exe)
 NPDir=0 NMtPBC=     1 NCelOv=     1 NCel=       1 NClECP=     1 NCelD=      1
         NCelK=      1 NCelE2=     1 NClLst=     1 CellRange=     0.0.
 One-electron integrals computed using PRISM.
 NBasis=   111 RedAO= T  NBF=   111
 NBsUse=   111 1.00D-06 NBFU=   111
 Precomputing XC quadrature grid using
 IXCGrd= 2 IRadAn=           0 IRanWt=          -1 IRanGd=           0 AccXCQ= 0.00D+00.
 NRdTot=     952 NPtTot=      121106 NUsed=      127978 NTot=      128010
 NSgBfM=   117   117   117   117   117 NAtAll=    15    15.
 Leave Link  302 at Fri Apr  1 11:32:48 2011, MaxMem= 1610612736 cpu:       2.0
 (Enter /group/hpc-share/gaussian-2009-B01/g09/l303.exe)
 DipDrv:  MaxL=1.
 Leave Link  303 at Fri Apr  1 11:32:49 2011, MaxMem= 1610612736 cpu:       0.3
 (Enter /group/hpc-share/gaussian-2009-B01/g09/l401.exe)
 Initial guess read from the read-write file.
 B after Tr=     0.000000    0.000000    0.000000
         Rot=    1.000000    0.000000    0.000000    0.000000 Ang=   0.00 deg.
 Guess basis will be translated and rotated to current coordinates.
 Initial guess orbital symmetries:
       Occupied  (A) (A) (A) (A) (A) (A) (A) (A) (A) (A) (A) (A)
                 (A) (A) (A) (A) (A) (A) (A) (A) (A) (A) (A) (A)
                 (A) (A) (A) (A) (A)
       Virtual   (A) (A) (A) (A) (A) (A) (A) (A) (A) (A) (A) (A)
                 (A) (A) (A) (A) (A) (A) (A) (A) (A) (A) (A) (A)
                 (A) (A) (A) (A) (A) (A) (A) (A) (A) (A) (A) (A)
                 (A) (A) (A) (A) (A) (A) (A) (A) (A) (A) (A) (A)
                 (A) (A) (A) (A) (A) (A) (A) (A) (A) (A) (A) (A)
                 (A) (A) (A) (A) (A) (A) (A) (A) (A) (A) (A) (A)
                 (A) (A) (A) (A) (A) (A) (A) (A) (A) (A)
 The electronic state of the initial guess is 1-A.
 Generating alternative initial guess.
 Harris functional with IExCor= 1009 diagonalized for initial guess.
 ExpMin= 1.22D-01 ExpMax= 9.18D+03 ExpMxC= 1.38D+03 IAcc=1 IRadAn=         1 AccDes= 0.00D+00
 HarFok:  IExCor= 1009 AccDes= 0.00D+00 IRadAn=         1 IDoV= 1
 ScaDFX=  1.000000  1.000000  1.000000  1.000000
 FoFCou: FMM=F IPFlag=           0 FMFlag=      100000 FMFlg1=           0
         NFxFlg=           0 DoJE=T BraDBF=F KetDBF=T FulRan=T
         Omega=  0.000000  0.000000  1.000000  0.000000  0.000000 ICntrl=     500 IOpCl=  0
         NMat0=    1 NMatS0=    1 NMatT0=    0 NMatD0=    1 NMtDS0=    0 NMtDT0=    0
         I1Cent=           4 NGrid=           0.
 Petite list used in FoFCou.
 Harris En= -663.465829776283    
 Leave Link  401 at Fri Apr  1 11:32:49 2011, MaxMem= 1610612736 cpu:       3.0
 (Enter /group/hpc-share/gaussian-2009-B01/g09/l502.exe)
 Closed shell SCF:
 Requested convergence on RMS density matrix=1.00D-08 within 128 cycles.
 Requested convergence on MAX density matrix=1.00D-06.
 Requested convergence on             energy=1.00D-06.
 No special actions if energy rises.
 Using DIIS extrapolation, IDIIS=  1040.
 Integral symmetry usage will be decided dynamically.
       127830 words used for storage of precomputed grid.
 Keep R1 ints in memory in canonical form, NReq=25779317.
 IEnd=      189598 IEndB=      189598 NGot=  1610612736 MDV=  1585803062
 LenX=  1585803062 LenY=  1585788697
 Symmetry not used in FoFDir.
 MinBra= 0 MaxBra= 2 Meth= 1.
 IRaf=       0 NMat=   1 IRICut=       1 DoRegI=T DoRafI=F ISym2E= 0 JSym2E=0.
 Integral accuracy reduced to 1.0D-05 until final iterations.

 Cycle   1  Pass 0  IDiag  1:
 E= -663.438350772425    
 DIIS: error= 3.43D-03 at cycle   1 NSaved=   1.
 NSaved= 1 IEnMin= 1 EnMin= -663.438350772425     IErMin= 1 ErrMin= 3.43D-03
 ErrMax= 3.43D-03 EMaxC= 1.00D-01 BMatC= 3.44D-03 BMatP= 3.44D-03
 IDIUse=3 WtCom= 9.66D-01 WtEn= 3.43D-02
 Coeff-Com:  0.100D+01
 Coeff-En:   0.100D+01
 Coeff:      0.100D+01
 Gap=     0.178 Goal=   None    Shift=    0.000
 GapD=    0.178 DampG=1.000 DampE=1.000 DampFc=1.0000 IDamp=-1.
 RMSDP=9.08D-04 MaxDP=1.29D-02              OVMax= 2.59D-02

 Cycle   2  Pass 0  IDiag  1:
 E= -663.443688755071     Delta-E=       -0.005337982646 Rises=F Damp=F
 DIIS: error= 1.13D-03 at cycle   2 NSaved=   2.
 NSaved= 2 IEnMin= 2 EnMin= -663.443688755071     IErMin= 2 ErrMin= 1.13D-03
 ErrMax= 1.13D-03 EMaxC= 1.00D-01 BMatC= 1.88D-04 BMatP= 3.44D-03
 IDIUse=3 WtCom= 9.89D-01 WtEn= 1.13D-02
 Coeff-Com:  0.290D-01 0.971D+00
 Coeff-En:   0.000D+00 0.100D+01
 Coeff:      0.287D-01 0.971D+00
 Gap=     0.175 Goal=   None    Shift=    0.000
 RMSDP=2.32D-04 MaxDP=4.57D-03 DE=-5.34D-03 OVMax= 8.43D-03

 Cycle   3  Pass 0  IDiag  1:
 E= -663.443698861848     Delta-E=       -0.000010106777 Rises=F Damp=F
 DIIS: error= 1.57D-03 at cycle   3 NSaved=   3.
 NSaved= 3 IEnMin= 3 EnMin= -663.443698861848     IErMin= 2 ErrMin= 1.13D-03
 ErrMax= 1.57D-03 EMaxC= 1.00D-01 BMatC= 2.67D-04 BMatP= 1.88D-04
 IDIUse=3 WtCom= 2.02D-01 WtEn= 7.98D-01
 Coeff-Com: -0.341D-01 0.564D+00 0.470D+00
 Coeff-En:   0.000D+00 0.486D+00 0.514D+00
 Coeff:     -0.687D-02 0.502D+00 0.505D+00
 Gap=     0.176 Goal=   None    Shift=    0.000
 RMSDP=1.60D-04 MaxDP=5.38D-03 DE=-1.01D-05 OVMax= 6.51D-03

 Cycle   4  Pass 0  IDiag  1:
 E= -663.443852683174     Delta-E=       -0.000153821327 Rises=F Damp=F
 DIIS: error= 9.74D-04 at cycle   4 NSaved=   4.
 NSaved= 4 IEnMin= 4 EnMin= -663.443852683174     IErMin= 4 ErrMin= 9.74D-04
 ErrMax= 9.74D-04 EMaxC= 1.00D-01 BMatC= 8.70D-05 BMatP= 1.88D-04
 IDIUse=3 WtCom= 9.90D-01 WtEn= 9.74D-03
 Coeff-Com: -0.236D-01 0.245D+00 0.371D+00 0.407D+00
 Coeff-En:   0.000D+00 0.000D+00 0.259D+00 0.741D+00
 Coeff:     -0.234D-01 0.243D+00 0.370D+00 0.410D+00
 Gap=     0.176 Goal=   None    Shift=    0.000
 RMSDP=8.21D-05 MaxDP=2.68D-03 DE=-1.54D-04 OVMax= 4.07D-03

 Cycle   5  Pass 0  IDiag  1:
 E= -663.443920227556     Delta-E=       -0.000067544382 Rises=F Damp=F
 DIIS: error= 2.01D-04 at cycle   5 NSaved=   5.
 NSaved= 5 IEnMin= 5 EnMin= -663.443920227556     IErMin= 5 ErrMin= 2.01D-04
 ErrMax= 2.01D-04 EMaxC= 1.00D-01 BMatC= 4.35D-06 BMatP= 8.70D-05
 IDIUse=3 WtCom= 9.98D-01 WtEn= 2.01D-03
 EnCoef did     1 forward-backward iterations
 Coeff-Com: -0.915D-02 0.476D-01 0.137D+00 0.241D+00 0.584D+00
 Coeff-En:   0.000D+00 0.000D+00 0.000D+00 0.191D-02 0.998D+00
 Coeff:     -0.913D-02 0.475D-01 0.137D+00 0.241D+00 0.584D+00
 Gap=     0.176 Goal=   None    Shift=    0.000
 RMSDP=2.77D-05 MaxDP=4.81D-04 DE=-6.75D-05 OVMax= 1.34D-03

 Cycle   6  Pass 0  IDiag  1:
 E= -663.443924868165     Delta-E=       -0.000004640609 Rises=F Damp=F
 DIIS: error= 5.97D-05 at cycle   6 NSaved=   6.
 NSaved= 6 IEnMin= 6 EnMin= -663.443924868165     IErMin= 6 ErrMin= 5.97D-05
 ErrMax= 5.97D-05 EMaxC= 1.00D-01 BMatC= 5.80D-07 BMatP= 4.35D-06
 IDIUse=1 WtCom= 1.00D+00 WtEn= 0.00D+00
 Coeff-Com: -0.110D-02-0.692D-02 0.248D-01 0.718D-01 0.316D+00 0.595D+00
 Coeff:     -0.110D-02-0.692D-02 0.248D-01 0.718D-01 0.316D+00 0.595D+00
 Gap=     0.176 Goal=   None    Shift=    0.000
 RMSDP=1.36D-05 MaxDP=2.04D-04 DE=-4.64D-06 OVMax= 7.43D-04

 Cycle   7  Pass 0  IDiag  1:
 E= -663.443925625245     Delta-E=       -0.000000757079 Rises=F Damp=F
 DIIS: error= 3.78D-05 at cycle   7 NSaved=   7.
 NSaved= 7 IEnMin= 7 EnMin= -663.443925625245     IErMin= 7 ErrMin= 3.78D-05
 ErrMax= 3.78D-05 EMaxC= 1.00D-01 BMatC= 1.67D-07 BMatP= 5.80D-07
 IDIUse=1 WtCom= 1.00D+00 WtEn= 0.00D+00
 Coeff-Com:  0.150D-02-0.181D-01-0.238D-01-0.233D-01 0.311D-01 0.386D+00
 Coeff-Com:  0.646D+00
 Coeff:      0.150D-02-0.181D-01-0.238D-01-0.233D-01 0.311D-01 0.386D+00
 Coeff:      0.646D+00
 Gap=     0.176 Goal=   None    Shift=    0.000
 RMSDP=7.64D-06 MaxDP=1.37D-04 DE=-7.57D-07 OVMax= 5.13D-04

 Initial convergence to 1.0D-05 achieved.  Increase integral accuracy.
 Cycle   8  Pass 1  IDiag  1:
 E= -663.443965684711     Delta-E=       -0.000040059467 Rises=F Damp=F
 DIIS: error= 1.36D-05 at cycle   1 NSaved=   1.
 NSaved= 1 IEnMin= 1 EnMin= -663.443965684711     IErMin= 1 ErrMin= 1.36D-05
 ErrMax= 1.36D-05 EMaxC= 1.00D-01 BMatC= 3.32D-08 BMatP= 3.32D-08
 IDIUse=1 WtCom= 1.00D+00 WtEn= 0.00D+00
 Coeff-Com:  0.100D+01
 Coeff:      0.100D+01
 Gap=     0.176 Goal=   None    Shift=    0.000
 RMSDP=7.64D-06 MaxDP=1.37D-04 DE=-4.01D-05 OVMax= 2.05D-04

 Cycle   9  Pass 1  IDiag  1:
 E= -663.443965719459     Delta-E=       -0.000000034747 Rises=F Damp=F
 DIIS: error= 1.20D-05 at cycle   2 NSaved=   2.
 NSaved= 2 IEnMin= 2 EnMin= -663.443965719459     IErMin= 2 ErrMin= 1.20D-05
 ErrMax= 1.20D-05 EMaxC= 1.00D-01 BMatC= 1.77D-08 BMatP= 3.32D-08
 IDIUse=1 WtCom= 1.00D+00 WtEn= 0.00D+00
 Coeff-Com:  0.392D+00 0.608D+00
 Coeff:      0.392D+00 0.608D+00
 Gap=     0.176 Goal=   None    Shift=    0.000
 RMSDP=2.01D-06 MaxDP=3.37D-05 DE=-3.47D-08 OVMax= 8.02D-05

 Cycle  10  Pass 1  IDiag  1:
 E= -663.443965730875     Delta-E=       -0.000000011416 Rises=F Damp=F
 DIIS: error= 8.42D-06 at cycle   3 NSaved=   3.
 NSaved= 3 IEnMin= 3 EnMin= -663.443965730875     IErMin= 3 ErrMin= 8.42D-06
 ErrMax= 8.42D-06 EMaxC= 1.00D-01 BMatC= 8.27D-09 BMatP= 1.77D-08
 IDIUse=1 WtCom= 1.00D+00 WtEn= 0.00D+00
 Coeff-Com:  0.130D-01 0.399D+00 0.588D+00
 Coeff:      0.130D-01 0.399D+00 0.588D+00
 Gap=     0.176 Goal=   None    Shift=    0.000
 RMSDP=1.20D-06 MaxDP=2.07D-05 DE=-1.14D-08 OVMax= 5.76D-05

 Cycle  11  Pass 1  IDiag  1:
 E= -663.443965739734     Delta-E=       -0.000000008859 Rises=F Damp=F
 DIIS: error= 2.95D-06 at cycle   4 NSaved=   4.
 NSaved= 4 IEnMin= 4 EnMin= -663.443965739734     IErMin= 4 ErrMin= 2.95D-06
 ErrMax= 2.95D-06 EMaxC= 1.00D-01 BMatC= 1.15D-09 BMatP= 8.27D-09
 IDIUse=1 WtCom= 1.00D+00 WtEn= 0.00D+00
 Coeff-Com: -0.328D-01 0.180D+00 0.362D+00 0.491D+00
 Coeff:     -0.328D-01 0.180D+00 0.362D+00 0.491D+00
 Gap=     0.176 Goal=   None    Shift=    0.000
 RMSDP=4.71D-07 MaxDP=7.41D-06 DE=-8.86D-09 OVMax= 2.23D-05

 Cycle  12  Pass 1  IDiag  1:
 E= -663.443965741115     Delta-E=       -0.000000001381 Rises=F Damp=F
 DIIS: error= 1.39D-06 at cycle   5 NSaved=   5.
 NSaved= 5 IEnMin= 5 EnMin= -663.443965741115     IErMin= 5 ErrMin= 1.39D-06
 ErrMax= 1.39D-06 EMaxC= 1.00D-01 BMatC= 1.98D-10 BMatP= 1.15D-09
 IDIUse=1 WtCom= 1.00D+00 WtEn= 0.00D+00
 Coeff-Com: -0.256D-01 0.437D-01 0.136D+00 0.293D+00 0.553D+00
 Coeff:     -0.256D-01 0.437D-01 0.136D+00 0.293D+00 0.553D+00
 Gap=     0.176 Goal=   None    Shift=    0.000
 RMSDP=2.42D-07 MaxDP=5.76D-06 DE=-1.38D-09 OVMax= 1.52D-05

 Cycle  13  Pass 1  IDiag  1:
 E= -663.443965741376     Delta-E=       -0.000000000261 Rises=F Damp=F
 DIIS: error= 9.33D-07 at cycle   6 NSaved=   6.
 NSaved= 6 IEnMin= 6 EnMin= -663.443965741376     IErMin= 6 ErrMin= 9.33D-07
 ErrMax= 9.33D-07 EMaxC= 1.00D-01 BMatC= 9.01D-11 BMatP= 1.98D-10
 IDIUse=1 WtCom= 1.00D+00 WtEn= 0.00D+00
 Coeff-Com: -0.351D-02-0.558D-01-0.738D-01-0.216D-01 0.462D+00 0.693D+00
 Coeff:     -0.351D-02-0.558D-01-0.738D-01-0.216D-01 0.462D+00 0.693D+00
 Gap=     0.176 Goal=   None    Shift=    0.000
 RMSDP=2.09D-07 MaxDP=4.28D-06 DE=-2.61D-10 OVMax= 1.55D-05

 Cycle  14  Pass 1  IDiag  1:
 E= -663.443965741528     Delta-E=       -0.000000000152 Rises=F Damp=F
 DIIS: error= 1.69D-07 at cycle   7 NSaved=   7.
 NSaved= 7 IEnMin= 7 EnMin= -663.443965741528     IErMin= 7 ErrMin= 1.69D-07
 ErrMax= 1.69D-07 EMaxC= 1.00D-01 BMatC= 6.46D-12 BMatP= 9.01D-11
 IDIUse=1 WtCom= 1.00D+00 WtEn= 0.00D+00
 Coeff-Com:  0.264D-02-0.326D-01-0.576D-01-0.611D-01 0.125D+00 0.332D+00
 Coeff-Com:  0.692D+00
 Coeff:      0.264D-02-0.326D-01-0.576D-01-0.611D-01 0.125D+00 0.332D+00
 Coeff:      0.692D+00
 Gap=     0.176 Goal=   None    Shift=    0.000
 RMSDP=6.20D-08 MaxDP=1.25D-06 DE=-1.52D-10 OVMax= 4.62D-06

 Cycle  15  Pass 1  IDiag  1:
 E= -663.443965741536     Delta-E=       -0.000000000008 Rises=F Damp=F
 DIIS: error= 5.86D-08 at cycle   8 NSaved=   8.
 NSaved= 8 IEnMin= 8 EnMin= -663.443965741536     IErMin= 8 ErrMin= 5.86D-08
 ErrMax= 5.86D-08 EMaxC= 1.00D-01 BMatC= 2.72D-13 BMatP= 6.46D-12
 IDIUse=1 WtCom= 1.00D+00 WtEn= 0.00D+00
 Coeff-Com:  0.900D-03-0.624D-02-0.138D-01-0.155D-01 0.521D-02 0.614D-01
 Coeff-Com:  0.227D+00 0.741D+00
 Coeff:      0.900D-03-0.624D-02-0.138D-01-0.155D-01 0.521D-02 0.614D-01
 Coeff:      0.227D+00 0.741D+00
 Gap=     0.176 Goal=   None    Shift=    0.000
 RMSDP=9.12D-09 MaxDP=1.47D-07 DE=-7.84D-12 OVMax= 5.59D-07

 SCF Done:  E(RPBE1PBE) =  -663.443965742     A.U. after   15 cycles
             Convg  =    0.9120D-08             -V/T =  2.0041
 KE= 6.607592415129D+02 PE=-2.161849174130D+03 EE= 5.345381211839D+02
 Leave Link  502 at Fri Apr  1 11:32:55 2011, MaxMem= 1610612736 cpu:      38.6
 (Enter /group/hpc-share/gaussian-2009-B01/g09/l701.exe)
 Compute integral first derivatives.
 ... and contract with generalized density number  0.
 Leave Link  701 at Fri Apr  1 11:32:57 2011, MaxMem= 1610612736 cpu:       1.5
 (Enter /group/hpc-share/gaussian-2009-B01/g09/l702.exe)
 L702 exits ... SP integral derivatives will be done elsewhere.
 Leave Link  702 at Fri Apr  1 11:32:58 2011, MaxMem= 1610612736 cpu:       0.2
 (Enter /group/hpc-share/gaussian-2009-B01/g09/l703.exe)
 Compute integral first derivatives, UseDBF=F ICtDFT=           0.
 Integral derivatives from FoFDir, PRISM(SPDF).
 Calling FoFJK, ICntrl=      2127 FMM=F ISym2X=0 I1Cent= 0 IOpClX= 0 NMat=1 NMatS=1 NMatT=0.
 FoFCou: FMM=F IPFlag=           0 FMFlag=      100000 FMFlg1=         800
         NFxFlg=           0 DoJE=F BraDBF=F KetDBF=F FulRan=T
         Omega=  0.000000  0.000000  1.000000  0.000000  0.000000 ICntrl=    2127 IOpCl=  0
         NMat0=    1 NMatS0=    1 NMatT0=    0 NMatD0=    1 NMtDS0=    0 NMtDT0=    0
         I1Cent=           0 NGrid=           0.
 Symmetry not used in FoFCou.
 Leave Link  703 at Fri Apr  1 11:32:59 2011, MaxMem= 1610612736 cpu:       7.7
 (Enter /group/hpc-share/gaussian-2009-B01/g09/l716.exe)
 Dipole        =-2.62047761D+00-1.09055291D+00-4.03655983D-01
 ***** Axes restored to original set *****
 -------------------------------------------------------------------
 Center     Atomic                   Forces (Hartrees/Bohr)
 Number     Number              X              Y              Z
 -------------------------------------------------------------------
      1        6          -0.000076188   -0.000728793    0.000928880
      2       16          -0.010532709    0.001202444   -0.002258756
      3        7           0.017248892    0.009557299    0.003863119
      4        8          -0.006895286   -0.013655962   -0.005007312
      5        7           0.002775271   -0.007068195   -0.003742901
      6        1           0.000488652    0.000860877    0.000354128
      7        1           0.000115436    0.000244013    0.000409700
[...]
 ! R9    R(5,7)                  1.0194         -DE/DX =    0.0                 !
 ! R10   R(5,8)                  1.0522         -DE/DX =    0.0                 !
 ! R11   R(5,12)                 1.4875         -DE/DX =    0.0                 !
 ! R12   R(12,13)                1.0869         -DE/DX =    0.0                 !
 ! R13   R(12,14)                1.087          -DE/DX =    0.0                 !
 ! R14   R(12,15)                1.087          -DE/DX =    0.0                 !
 ! A1    A(2,1,9)              110.0026         -DE/DX =    0.0                 !
 ! A2    A(2,1,10)             106.1201         -DE/DX =    0.0                 !
 ! A3    A(2,1,11)             110.0262         -DE/DX =    0.0                 !
 ! A4    A(9,1,10)             110.1922         -DE/DX =    0.0                 !
 ! A5    A(9,1,11)             110.2288         -DE/DX =    0.0                 !
 ! A6    A(10,1,11)            110.1941         -DE/DX =    0.0                 !
 ! A7    A(1,2,3)              102.8482         -DE/DX =    0.0                 !
 ! A8    A(2,3,4)              120.0382         -DE/DX =    0.0                 !
 ! A9    A(2,3,8)              140.7263         -DE/DX =    0.0                 !
 ! A10   A(4,3,8)               99.2282         -DE/DX =    0.0                 !
 ! A11   A(6,5,7)              107.8221         -DE/DX =    0.0                 !
 ! A12   A(6,5,8)              108.7226         -DE/DX =    0.0                 !
 ! A13   A(6,5,12)             111.5793         -DE/DX =    0.0                 !
 ! A14   A(7,5,8)              106.4352         -DE/DX =    0.0                 !
 ! A15   A(7,5,12)             111.0958         -DE/DX =    0.0                 !
 ! A16   A(8,5,12)             110.9882         -DE/DX =    0.0                 !
 ! A17   A(3,8,5)              155.9845         -DE/DX =    0.0                 !
 ! A18   A(5,12,13)            108.3465         -DE/DX =    0.0                 !
 ! A19   A(5,12,14)            109.4402         -DE/DX =    0.0                 !
 ! A20   A(5,12,15)            108.6946         -DE/DX =    0.0                 !
 ! A21   A(13,12,14)           110.1786         -DE/DX =    0.0                 !
 ! A22   A(13,12,15)           110.0183         -DE/DX =    0.0                 !
 ! A23   A(14,12,15)           110.1231         -DE/DX =    0.0                 !
 ! D1    D(9,1,2,3)            -60.9205         -DE/DX =    0.0                 !
 ! D2    D(10,1,2,3)           179.8984         -DE/DX =    0.0                 !
 ! D3    D(11,1,2,3)            60.7025         -DE/DX =    0.0                 !
 ! D4    D(1,2,3,4)             -0.0463         -DE/DX =    0.0                 !
 ! D5    D(1,2,3,8)            178.7335         -DE/DX =    0.0                 !
 ! D6    D(2,3,8,5)            176.6864         -DE/DX =    0.0                 !
 ! D7    D(4,3,8,5)             -4.3837         -DE/DX =    0.0                 !
 ! D8    D(6,5,8,3)            151.1485         -DE/DX =    0.0                 !
 ! D9    D(7,5,8,3)             35.2418         -DE/DX =    0.0                 !
 ! D10   D(12,5,8,3)           -85.7618         -DE/DX =    0.0                 !
 ! D11   D(6,5,12,13)         -179.8652         -DE/DX =    0.0                 !
 ! D12   D(6,5,12,14)          -59.704          -DE/DX =    0.0                 !
 ! D13   D(6,5,12,15)           60.5999         -DE/DX =    0.0                 !
 ! D14   D(7,5,12,13)          -59.5103         -DE/DX =    0.0                 !
 ! D15   D(7,5,12,14)           60.651          -DE/DX =    0.0                 !
 ! D16   D(7,5,12,15)         -179.0451         -DE/DX =    0.0                 !
 ! D17   D(8,5,12,13)           58.706          -DE/DX =    0.0                 !
 ! D18   D(8,5,12,14)          178.8673         -DE/DX =    0.0                 !
 ! D19   D(8,5,12,15)          -60.8288         -DE/DX =    0.0                 !
 --------------------------------------------------------------------------------
 GradGradGradGradGradGradGradGradGradGradGradGradGradGradGradGradGradGrad

 Leave Link  103 at Fri Apr  1 14:07:48 2011, MaxMem= 1610612736 cpu:       0.1
 (Enter /group/hpc-share/gaussian-2009-B01/g09/l9999.exe)
 1\1\GINC-HPC-CN36\Freq\RPBE1PBE\Gen\C2H9N2O1S1(1+)\TALIPOVM\01-Apr-201
 1\0\\#P Geom=AllCheck Guess=TCheck SCRF=Check GenChk RPBE1PBE/ChkBas F
 req\\\1,1\C,-2.3615854996,1.2168245939,0.0142040056\S,-2.4567162223,-0
 .4506382339,-0.6044837633\N,-0.9650405002,-1.0921124478,-0.1794500668\
 O,-0.1589323977,-0.4106716469,0.4052871383\N,0.8013947812,-3.241364395
 5,-0.1500068503\H,0.4787061744,-4.1993698458,-0.0259713471\H,1.2519091
 208,-2.9492218138,0.7165357115\H,-0.0358106096,-2.6165779075,-0.275588
 42\H,-2.221441885,1.2060361039,1.094668636\H,-3.3117918006,1.687505463
 3,-0.2371789776\H,-1.5403035591,1.7470274692,-0.4669342105\C,1.7325749
 378,-3.1227916187,-1.3039644512\H,2.0446921512,-2.0849522512,-1.386472
 7914\H,2.5961126228,-3.7620612525,-1.1391749431\H,1.209082686,-3.42680
 22168,-2.2067396701\\Version=EM64L-G09RevB.01\State=1-A\HF=-663.924600
 7\RMSD=1.207e-09\RMSF=2.517e-06\ZeroPoint=0.1258054\Thermal=0.1356484\
 Dipole=1.4409807,-2.0696199,-0.0282741\DipoleDeriv=-0.0396438,-0.04855
 87,-0.0237726,0.0895077,-0.0113044,0.0342012,0.0181557,-0.0225538,-0.0
 061377,-0.4463544,0.2931941,-0.1587495,0.3358185,0.2077903,0.1432693,-
 0.1564086,0.1401047,0.1553785,1.3524768,-0.2120844,0.5651987,0.4039517
 ,-0.4183259,0.051187,0.7788689,-0.1855245,0.1324598,-1.1339509,0.27439
 71,-0.3350144,-0.5482916,-0.0635797,-0.2278522,-0.6402152,0.1231515,-0
 .318049,-0.5585488,0.3934044,0.123893,0.2713794,-0.4067013,-0.0014616,
 0.0659797,0.047213,-0.2447367,0.2073959,0.0212866,0.0146628,-0.0029605
 ,0.2943984,-0.0162888,0.0276451,-0.0191394,0.2073176,0.2476022,-0.0272
 316,0.0532352,-0.0607465,0.2504017,-0.0024481,0.0550938,-0.0068589,0.2
 523305,0.7132836,-0.6250244,-0.0339423,-0.5986566,0.797821,0.045054,0.
 0569553,-0.0468315,0.1240436,0.0862735,-0.0122426,-0.0358048,0.0349287
 ,-0.0018992,0.0071199,-0.0178767,0.0100409,0.0361482,0.0855412,-0.0177
 619,-0.024626,0.0427123,0.0611863,-0.0059157,-0.0021056,-0.0294956,0.1
 111079,0.0267339,-0.0139051,0.02964,0.0192716,0.0230599,-0.0143534,0.0
 386881,-0.0505387,0.0670507,0.2748506,-0.0246782,-0.1863906,0.0159044,
 0.0591412,-0.0224675,-0.2464931,0.0535495,0.3224524,0.1102061,-0.00429
 92,0.0265644,-0.0189093,0.0243698,-0.0060355,0.0162196,-0.0317707,0.06
 26833,0.0500249,0.0375753,0.015934,0.045921,0.07268,0.0265139,0.001904
 8,0.0277864,0.0517269,0.0241091,-0.0340714,-0.0308279,-0.0298311,0.110
 962,-0.0105223,0.0035881,-0.0091328,0.0462239\Polar=80.8101611,-15.384
 1589,74.0479192,4.5135226,2.9053968,55.7558992\PG=C01 [X(C2H9N2O1S1)]\
 NImag=0\\0.56180313,-0.00346075,0.37578309,0.00441280,-0.06161814,0.52
 946987,-0.04608113,-0.00777494,-0.00505209,0.22262952,-0.04107424,-0.1
 2481374,-0.04704077,-0.00740214,0.24280514,-0.01662109,-0.03250914,-0.
 05893636,0.07323275,0.06432025,0.10172749,-0.01541412,0.01391910,-0.01
 083000,-0.06454968,0.05366213,0.00652087,0.36976061,0.04191998,-0.0210
 7367,0.00384344,0.03499519,-0.09952433,-0.00664681,0.13483757,0.452124
 76,-0.00111765,-0.00833297,0.01700853,-0.00006045,0.00156699,-0.035800
 89,0.18291101,0.19508429,0.20220436,0.00982815,-0.00785816,0.00740827,
 -0.11167010,-0.00609254,-0.06010746,-0.28193666,-0.22636051,-0.1873829
 9,0.38518761,-0.00124002,0.00431117,0.00566244,-0.02205242,0.02853937,
 -0.00741905,-0.20992006,-0.30391534,-0.18517055,0.24097138,0.26818459,
 0.00967867,0.00274779,-0.00828414,-0.06561396,-0.00041922,-0.00663469,
 -0.18180413,-0.19262683,-0.17551010,0.24209639,0.19042910,0.18958219,-
 0.00212805,0.00062189,-0.00061221,0.00088347,0.00361773,0.00175324,-0.
 01651950,0.01211665,-0.00579349,0.00410983,0.00257738,0.00298792,0.601
 72198,0.00205784,-0.00062926,0.00075741,-0.00165727,-0.00320755,-0.001
 87357,0.01983655,-0.01285627,0.00177650,-0.00066948,0.00147963,0.00122
 763,0.03257797,0.72074760,-0.00005853,0.00008430,-0.00022480,-0.000225
 22,0.00045628,-0.00008614,-0.00358693,-0.00135301,0.00477283,0.0023266
 7,0.00258650,0.00043561,0.07917763,0.01844956,0.62192742,-0.00032328,0
 .00014569,-0.00011538,0.00006503,0.00061694,0.00013291,-0.00154217,0.0
 0149520,0.00090879,-0.00068041,-0.00089889,-0.00086631,-0.09151867,-0.
 10283852,0.00864366,0.09203248,-0.00004713,0.00004147,0.00001921,-0.00
 026906,0.00012956,-0.00003836,0.00084435,-0.00034207,-0.00024371,-0.00
 005675,0.00048463,0.00024715,-0.10673151,-0.38039111,0.03430991,0.1139
 7325,0.40046354,-0.00002427,0.00002474,-0.00001785,0.00022326,0.000016
 52,0.00014189,-0.00072057,0.00006428,-0.00016757,0.00046397,-0.0005368
 4,0.00003523,0.01053457,0.03982945,-0.06336422,-0.01495863,-0.03859613
 ,0.06428839,0.00007331,-0.00001076,-0.00002991,0.00025370,-0.00008407,
 -0.00009479,-0.00179335,-0.00021136,-0.00000429,0.00136379,0.00048379,
 0.00102608,-0.13121891,-0.04977148,-0.13862090,-0.00582029,-0.00100163
 ,-0.00896014,0.13737479,0.00010365,-0.00004644,0.00006906,-0.00113017,
 0.00005102,-0.00034785,0.00379574,0.00033924,0.00095285,-0.00266090,-0
 .00103044,-0.00163423,-0.04655728,-0.08913943,-0.08244549,-0.01703694,
 -0.00821185,-0.03308126,0.05362494,0.08627648,0.00015853,-0.00006158,0
 .00006718,0.00005079,-0.00029922,0.00007017,0.00003826,-0.00031702,-0.
 00020530,0.00059713,-0.00054471,-0.00025061,-0.13929487,-0.08785492,-0
 .31100562,0.00350614,0.00192521,0.00680263,0.14513385,0.09209187,0.330
 83089,0.00250514,-0.00088938,0.00041454,-0.00105872,-0.00368088,-0.002
 25841,0.00774329,0.00153660,0.01026032,-0.00580807,-0.00740849,-0.0067
 6676,-0.21443647,0.11105624,-0.02970141,0.01659507,-0.00762441,0.00227
 240,-0.01165688,0.00701221,-0.00333467,0.22138124,-0.00341233,0.001389
 38,-0.00124123,0.00109942,0.00607271,0.00223720,-0.00919155,-0.0052571
 8,-0.00125875,0.00023483,-0.00523965,-0.00288272,0.10918608,-0.1457844
 7,0.02013335,0.02507287,-0.01761197,0.00453791,-0.01107572,0.01000345,
 0.00069021,-0.10609675,0.14888219,-0.00032221,-0.00022495,0.00058202,-
 0.00056013,-0.00007331,0.00084875,0.00667362,0.00348354,-0.01007239,-0
 .00412239,-0.00624790,-0.00013718,-0.02657847,0.01825266,-0.06576370,-
 0.00236515,0.00122789,-0.00174218,-0.02460067,0.01986903,-0.00334665,0
 .02610697,-0.01912765,0.07829712,-0.04724835,0.00025336,-0.03457430,-0
 .00327377,-0.00028268,-0.00164194,0.00305831,0.00233518,0.00179050,-0.
 00074042,-0.00269430,-0.00068912,0.00005019,-0.00004975,0.00005058,0.0
 0001585,0.00000686,-0.00001170,0.00001124,0.00002548,-0.00000555,0.000
 02070,0.00009823,-0.00013162,0.04674087,0.00039994,-0.03801506,0.00335
 514,-0.00257130,-0.01269829,-0.02977702,-0.00565181,0.00004627,0.00232
 012,0.00378075,0.00245150,-0.00018235,0.00003609,0.00005124,-0.0000508
 8,-0.00002764,0.00002360,-0.00002655,-0.00001043,0.00002087,-0.0000257
 1,-0.00023059,-0.00003116,0.00013919,0.00087790,0.04684825,-0.03446129
 ,0.00969140,-0.32222080,-0.00131229,-0.00597863,-0.00565557,-0.0007773
 7,0.00138183,-0.00013311,0.00028199,0.00006957,0.00022018,-0.00009798,
 0.00009310,0.00000310,-0.00001582,-0.00001787,0.00000914,0.00002410,-0
 .00002884,0.00002292,0.00017799,-0.00022392,-0.00001268,0.03836622,-0.
 00517644,0.34285911,-0.25975237,0.10630445,-0.05788058,0.00272100,0.00
 031808,0.00233480,-0.00035314,-0.00490067,-0.00208767,0.00011448,0.002
 34690,0.00096242,0.00040622,-0.00034024,0.00005873,0.00003550,0.000023
 67,-0.00000335,-0.00001378,-0.00000967,-0.00003596,-0.00047989,0.00062
 024,-0.00009001,-0.00193819,-0.00006666,0.00095704,0.27611490,0.109870
 89,-0.09283397,0.03053810,0.02305239,-0.01249199,0.00652991,0.00092458
 ,-0.01086920,-0.00354385,-0.00332038,0.00348736,-0.00014947,0.00066900
 ,-0.00065389,0.00005575,0.00010081,0.00002548,0.00000368,-0.00001949,-
 0.00004029,-0.00006234,-0.00084053,0.00116511,-0.00006138,-0.00137654,
 0.00036600,0.00015423,-0.11526419,0.10317515,-0.05665382,0.02898624,-0
 .05727823,0.01020951,-0.00336232,0.00088904,-0.00005934,-0.00609333,-0
 .00155635,-0.00099971,0.00228854,0.00013186,0.00043733,-0.00035625,-0.
 00002095,0.00003489,0.00002329,0.00000272,-0.00002584,-0.00001050,-0.0
 0003576,-0.00058261,0.00061800,0.00012217,-0.02641875,0.01450896,-0.00
 408620,0.06199748,-0.02922952,0.05932389,-0.20330789,-0.10118119,0.096
 76904,-0.00024349,0.00059026,-0.00341556,0.00190868,0.00172581,0.00297
 914,-0.00048075,-0.00185172,-0.00191316,-0.00000968,0.00002130,-0.0000
 1877,-0.00000999,-0.00000211,0.00000031,0.00000722,0.00001416,0.000011
 56,0.00004797,-0.00015786,0.00015785,0.00333546,0.00346196,-0.00317147
 ,-0.01680671,-0.01374794,0.01207298,0.21551524,-0.10526809,-0.10410204
 ,0.06567137,-0.01627092,-0.02473643,0.00570315,-0.00321067,0.00225050,
 -0.00442535,0.00189855,0.00146709,0.00360526,-0.00007633,0.00006922,0.
 00005695,-0.00002304,-0.00000346,-0.00000080,0.00001750,-0.00002017,0.
 00000427,0.00006173,-0.00005578,-0.00022471,0.00079777,0.00095027,0.00
 003232,0.01098061,0.00870905,-0.00733952,0.11112165,0.11547138,0.09529
 291,0.06106770,-0.10008308,-0.01040529,-0.00972140,0.00339305,0.001084
 04,0.00214159,-0.00119328,0.00065355,-0.00112158,0.00095847,0.00010990
 ,-0.00006060,0.00000873,-0.00000667,0.00002294,-0.00001229,-0.00001688
 ,0.00004007,-0.00001473,-0.00018386,0.00017873,-0.00005063,0.02324292,
 0.01490185,-0.01096398,-0.00627552,-0.00434273,0.00243433,-0.10344672,
 -0.06309076,0.10544503,0.00015104,-0.00007970,0.00008886,0.00017847,-0
 .00023258,-0.00012895,0.00075648,-0.00008716,-0.00140265,0.00012023,-0
 .00048523,0.00081558,-0.13237334,-0.00650171,0.04787945,-0.00766601,-0
 .00078569,0.00896768,0.01388238,0.00335698,-0.01003676,-0.01744743,-0.
 00295358,0.02356965,-0.00001975,0.00001188,0.00002039,-0.00004356,-0.0
 0006647,-0.00002729,0.00002792,-0.00003010,-0.00004758,0.56001978,0.00
 020676,-0.00003164,-0.00002025,-0.00015464,-0.00017564,-0.00024942,0.0
 0082375,-0.00108942,0.00143324,-0.00021299,-0.00024032,-0.00029676,-0.
 00294529,-0.09752296,0.00266166,-0.02202915,0.00271777,0.02873195,0.00
 824339,0.00169162,-0.00665429,0.00809057,0.00649894,-0.01785271,0.0000
 0904,-0.00002438,0.00000636,-0.00002368,-0.00005765,-0.00004475,0.0000
 0223,0.00001320,-0.00000707,-0.00983857,0.62658066,-0.00049909,0.00021
 472,-0.00012940,-0.00020743,0.00077192,0.00039954,-0.00090619,0.001960
 36,-0.00039322,-0.00059475,0.00015596,-0.00033407,0.04137882,0.0060760
 1,-0.15211880,0.00315136,0.00237726,-0.00287834,0.02247363,0.00292133,
 -0.02379750,0.00451801,-0.00725336,0.00498101,0.00000707,0.00000288,-0
 .00004522,0.00008594,0.00016767,0.00011144,-0.00001756,-0.00000978,0.0
 0006236,0.08483459,0.01394604,0.52152119,-0.00000415,-0.00002598,0.000
 01801,0.00013500,-0.00009770,0.00016062,-0.00084906,0.00007481,-0.0006
 3044,0.00066008,0.00027955,0.00018111,-0.01053309,-0.02361977,0.005058
 82,-0.00216532,0.00085449,0.00351017,0.00078687,0.00006820,-0.00075617
 ,0.00056641,-0.00132024,-0.00049027,-0.00000662,-0.00000446,0.00001265
 ,-0.00001306,-0.00000991,-0.00000364,0.00001503,0.00000756,-0.00000255
 ,-0.07056442,-0.06930997,0.00515051,0.07551496,0.00000932,0.00000297,0
 .00000221,-0.00004041,0.00002114,-0.00003100,0.00005592,0.00015705,0.0
 0005920,-0.00007203,-0.00018303,-0.00003436,0.00095163,0.00250081,-0.0
 0029454,0.00108979,0.00145279,-0.00090387,-0.00023552,0.00005924,0.000
 58031,-0.00036358,0.00032207,0.00027494,-0.00000045,-0.00000072,0.0000
 0039,-0.00000411,-0.00000632,0.00000015,0.00000926,-0.00001084,-0.0000
 0416,-0.07801969,-0.31351937,0.01932064,0.08290862,0.32863685,0.000035
 27,-0.00001423,0.00001445,-0.00032589,0.00003721,-0.00017529,0.0009473
 5,0.00009107,0.00041243,-0.00067697,-0.00019308,-0.00014501,0.01347250
 ,0.03111647,-0.00752886,0.00358683,-0.00065126,-0.00445053,-0.00040405
 ,0.00108450,0.00105526,-0.00124587,0.00063343,0.00092108,0.00001231,0.
 00000381,-0.00000318,-0.00000460,-0.00001195,-0.00000522,-0.00000250,0
 .00000572,0.00002133,0.00202454,0.00819978,-0.05044220,-0.01209022,-0.
 01978503,0.05585694,-0.00007098,0.00001989,-0.00000486,0.00005019,0.00
 007797,0.00007690,-0.00037203,0.00034475,-0.00032435,0.00008691,0.0000
 2492,0.00003222,-0.01921895,0.01154988,0.00032177,-0.00031222,0.000430
 32,-0.00047020,0.00046970,0.00005437,-0.00034914,0.00033992,-0.0020786
 1,0.00298357,-0.00000151,0.00000552,-0.00000351,0.00000944,0.00002182,
 0.00001481,-0.00000089,-0.00000196,0.00000459,-0.22337414,0.12967570,-
 0.03543208,0.01027834,-0.00615241,0.00104658,0.24161193,-0.00005357,0.
 00000732,0.00000237,0.00005701,0.00003369,0.00009535,-0.00048196,0.000
 20669,-0.00028722,0.00022345,0.00006102,-0.00002117,-0.00790407,0.0044
 2485,-0.00012300,-0.00023787,0.00079250,-0.00053676,0.00072629,-0.0002
 6836,-0.00056043,-0.00070653,-0.00015466,0.00133750,-0.00000105,0.0000
 0290,0.00000100,0.00000394,0.00001405,0.00000885,0.00000237,-0.0000000
 5,0.00000247,0.13590210,-0.15172667,0.02759391,0.02436728,-0.01405219,
 0.00506915,-0.14258901,0.15422096,0.00015172,-0.00005299,0.00002893,0.
 00002607,-0.00022865,-0.00012974,0.00038657,-0.00078386,0.00054741,0.0
 0004830,0.00002344,-0.00012111,0.03199457,-0.01998929,-0.00057519,-0.0
 0081324,-0.00048651,0.00127187,0.00010265,-0.00062773,0.00156730,0.001
 32937,0.00285810,-0.00486617,0.00000217,0.00000011,0.00000768,-0.00001
 847,-0.00004473,-0.00003145,-0.00000140,0.00000698,-0.00000972,-0.0455
 7488,0.03393002,-0.05921656,-0.00186424,-0.00017978,-0.00046732,0.0337
 4415,-0.03146160,0.06336880,-0.00003045,0.00001647,-0.00001220,-0.0000
 3951,0.00006371,0.00005611,0.00010234,0.00017795,-0.00004578,-0.000154
 67,-0.00013280,-0.00012694,0.01078497,0.00834845,0.02869446,0.00129443
 ,0.00038534,-0.00082351,-0.00371979,-0.00066077,0.00431685,0.00168771,
 -0.00002503,-0.00023074,-0.00000402,-0.00001115,-0.00000066,-0.0000008
 3,0.00000597,0.00000400,0.00000188,-0.00000428,-0.00000282,-0.12364766
 ,-0.04253714,-0.12394283,-0.00382098,-0.00013632,-0.00637529,-0.009495
 71,-0.00930837,-0.01951332,0.12704229,-0.00001226,0.00001042,-0.000000
 37,0.00011925,-0.00000466,0.00000636,-0.00024363,-0.00019702,0.0000692
 2,0.00019477,0.00014242,-0.00000983,0.00186007,0.00091160,0.00547265,0
 .00059750,0.00042912,0.00047368,-0.00067546,0.00031506,0.00108834,0.00
 008379,-0.00019899,-0.00077214,0.00000097,0.00000870,-0.00000451,0.000
 01132,0.00001109,0.00000216,-0.00000818,-0.00000195,-0.00000705,-0.040
 19048,-0.07311414,-0.06824556,-0.01417246,-0.00538045,-0.02558560,0.00
 861685,0.00643794,0.01703649,0.04381795,0.07063085,0.00002804,-0.00000
 289,0.00000368,0.00002038,-0.00004566,-0.00005127,0.00012280,-0.000229
 54,0.00008666,0.00000800,0.00001817,0.00005337,-0.00946945,-0.00744417
 ,-0.02645941,-0.00082339,-0.00011902,0.00008112,0.00399714,0.00114720,
 -0.00176016,-0.00100601,0.00010069,0.00023944,0.00000123,0.00000687,-0
 .00000139,-0.00000027,-0.00000338,-0.00000128,-0.00000374,0.00000491,0
 .00000441,-0.11098261,-0.06378378,-0.23772022,0.00174566,0.00099489,0.
 00493613,-0.00164044,-0.00112044,-0.00137474,0.11800267,0.07047616,0.2
 6196367\\-0.00000065,0.00000054,-0.00000239,0.00000108,0.00000141,-0.0
 0000556,-0.00000252,0.00000142,-0.00000146,-0.00000122,-0.00000218,0.0
 0000093,0.00000135,-0.00000388,-0.00000016,-0.00000051,-0.00000086,-0.
 00000173,-0.00000479,-0.00000041,0.00000155,-0.00000047,0.00000043,-0.
 00000084,-0.00000377,-0.00000145,-0.00000296,0.00000072,0.00000039,-0.
 00000480,0.00000077,0.00000009,0.00000052,0.00000035,0.00000158,0.0000
 0515,0.00000367,0.00000043,0.00000610,0.00000114,0.00000068,0.00000442
 ,0.00000485,0.00000181,0.00000122\\\@


 TO DETECT ERRORS, THE PROGRAMMER MUST HAVE A CONNIVING MIND,
 ONE THAT DELIGHTS IN UNCOVERING FLAWS WHERE BEAUTY AND
 PERFECTION WERE ONCE THOUGHT TO LIE.

             -- THE PSYCHOLOGY OF COMPUTER PROGRAMMING
                GERALD M. WEINBERG
 Job cpu time:  0 days  2 hours 42 minutes 42.2 seconds.
 File lengths (MBytes):  RWF=    188 Int=      0 D2E=      0 Chk=     11 Scr=      1
 Normal termination of Gaussian 09 at Fri Apr  1 14:07:48 2011.
