 Entering Gaussian System, Link 0=g09
 Input=NO.com
 Output=NO.log
 AtFile(1): NO.xyz
            N 0.0 0.0 0.0
            O 0.0 0.0 1.2
 Initial command:
 /group/hpc-share/gaussian/2009B/g09/l1.exe /tmp/g_NO.com-282163.hn1.marqnet.mu.edu/Gau-20912.inp -scrdir=/tmp/g_NO.com-282163.hn1.marqnet.mu.edu/
 Entering Link 1 = /group/hpc-share/gaussian/2009B/g09/l1.exe PID=     20913.
  
 Copyright (c) 1988,1990,1992,1993,1995,1998,2003,2009,2010,
            Gaussian, Inc.  All Rights Reserved.
  
 This is part of the Gaussian(R) 09 program.  It is based on
 the Gaussian(R) 03 system (copyright 2003, Gaussian, Inc.),
 the Gaussian(R) 98 system (copyright 1998, Gaussian, Inc.),
 the Gaussian(R) 94 system (copyright 1995, Gaussian, Inc.),
 the Gaussian 92(TM) system (copyright 1992, Gaussian, Inc.),
 the Gaussian 90(TM) system (copyright 1990, Gaussian, Inc.),
 the Gaussian 88(TM) system (copyright 1988, Gaussian, Inc.),
 the Gaussian 86(TM) system (copyright 1986, Carnegie Mellon
 University), and the Gaussian 82(TM) system (copyright 1983,
 Carnegie Mellon University). Gaussian is a federally registered
 trademark of Gaussian, Inc.
  
 This software contains proprietary and confidential information,
 including trade secrets, belonging to Gaussian, Inc.
  
 This software is provided under written license and may be
 used, copied, transmitted, or stored only in accord with that
 written license.
  
 The following legend is applicable only to US Government
 contracts under FAR:
  
                    RESTRICTED RIGHTS LEGEND
  
 Use, reproduction and disclosure by the US Government is
 subject to restrictions as set forth in subparagraphs (a)
 and (c) of the Commercial Computer Software - Restricted
 Rights clause in FAR 52.227-19.
  
 Gaussian, Inc.
 340 Quinnipiac St., Bldg. 40, Wallingford CT 06492
  
  
 ---------------------------------------------------------------
 Warning -- This program may not be used in any manner that
 competes with the business of Gaussian, Inc. or will provide
 assistance to any competitor of Gaussian, Inc.  The licensee
 of this program is prohibited from giving any competitor of
 Gaussian, Inc. access to this program.  By using this program,
 the user acknowledges that Gaussian, Inc. is engaged in the
 business of creating and licensing software in the field of
 computational chemistry and represents and warrants to the
 licensee that it is not a competitor of Gaussian, Inc. and that
 it will not use this program in any manner prohibited above.
 ---------------------------------------------------------------
  

 Cite this work as:
 Gaussian 09, Revision B.01,
 M. J. Frisch, G. W. Trucks, H. B. Schlegel, G. E. Scuseria, 
 M. A. Robb, J. R. Cheeseman, G. Scalmani, V. Barone, B. Mennucci, 
 G. A. Petersson, H. Nakatsuji, M. Caricato, X. Li, H. P. Hratchian, 
 A. F. Izmaylov, J. Bloino, G. Zheng, J. L. Sonnenberg, M. Hada, 
 M. Ehara, K. Toyota, R. Fukuda, J. Hasegawa, M. Ishida, T. Nakajima, 
 Y. Honda, O. Kitao, H. Nakai, T. Vreven, J. A. Montgomery, Jr., 
 J. E. Peralta, F. Ogliaro, M. Bearpark, J. J. Heyd, E. Brothers, 
 K. N. Kudin, V. N. Staroverov, T. Keith, R. Kobayashi, J. Normand, 
 K. Raghavachari, A. Rendell, J. C. Burant, S. S. Iyengar, J. Tomasi, 
 M. Cossi, N. Rega, J. M. Millam, M. Klene, J. E. Knox, J. B. Cross, 
 V. Bakken, C. Adamo, J. Jaramillo, R. Gomperts, R. E. Stratmann, 
 O. Yazyev, A. J. Austin, R. Cammi, C. Pomelli, J. W. Ochterski, 
 R. L. Martin, K. Morokuma, V. G. Zakrzewski, G. A. Voth, 
 P. Salvador, J. J. Dannenberg, S. Dapprich, A. D. Daniels, 
 O. Farkas, J. B. Foresman, J. V. Ortiz, J. Cioslowski, 
 and D. J. Fox, Gaussian, Inc., Wallingford CT, 2010.
 
 ******************************************
 Gaussian 09:  EM64L-G09RevB.01 12-Aug-2010
                23-Jul-2012 
 ******************************************
 %nproc=8
 Will use up to    8 processors via shared memory.
 %mem=12Gb
 %chk=NO.chk
 ----------------------------------
 #p cbs-qb3 scrf(pcm,solvent=water)
 ----------------------------------
 1/14=-1,18=20,19=15,26=3,38=1/1,3;
 2/9=110,12=2,17=6,18=5,40=1/2;
 3/5=4,6=6,7=700,11=2,16=1,25=1,30=1,70=2201,71=1,72=1,74=-5/1,2,3;
 4//1;
 5/5=2,38=5,53=1/2;
 6/7=2,8=2,9=2,10=2,28=1/1;
 7//1,2,3,16;
 1/14=-1,18=20,19=15/3(2);
 2/9=110/2;
 99//99;
 2/9=110/2;
 3/5=4,6=6,7=700,11=2,16=1,25=1,30=1,70=2205,71=1,72=1,74=-5/1,2,3;
 4/5=5,16=3/1;
 5/5=2,38=5,53=1/2;
 7//1,2,3,16;
 1/14=-1,18=20,19=15/3(-5);
 2/9=110/2;
 6/7=2,8=2,9=2,10=2,19=2,28=1/1;
 99/9=1/99;
 Leave Link    1 at Mon Jul 23 16:32:31 2012, MaxMem= 1610612736 cpu:       0.6
 (Enter /group/hpc-share/gaussian/2009B/g09/l101.exe)


 Symbolic Z-matrix:
 Charge = -1 Multiplicity = 1
 N                     0.        0.        0. 
 O                     0.        0.        1.2 
 
 NAtoms=      2 NQM=      2 NQMF=      0 NMic=      0 NMicF=      0 NTot=      2.
                    Isotopes and Nuclear Properties:
 (Nuclear quadrupole moments (NQMom) in fm**2, nuclear magnetic moments (NMagM)
  in nuclear magnetons)

  Atom         1           2
 IAtWgt=          14          16
 AtmWgt=  14.0030740  15.9949146
 NucSpn=           2           0
 AtZEff=   0.0000000   0.0000000
 NQMom=    2.0440000   0.0000000
 NMagM=    0.4037610   0.0000000
 Leave Link  101 at Mon Jul 23 16:32:32 2012, MaxMem= 1610612736 cpu:       0.5
 (Enter /group/hpc-share/gaussian/2009B/g09/l103.exe)

 GradGradGradGradGradGradGradGradGradGradGradGradGradGradGradGradGradGrad
 Berny optimization.
 Initialization pass.
                           ----------------------------
                           !    Initial Parameters    !
                           ! (Angstroms and Degrees)  !
 --------------------------                            --------------------------
 ! Name  Definition              Value          Derivative Info.                !
 --------------------------------------------------------------------------------
 ! R1    R(1,2)                  1.2            estimate D2E/DX2                !
 --------------------------------------------------------------------------------
 Trust Radius=3.00D-01 FncErr=1.00D-07 GrdErr=1.00D-06
 Number of steps in this run=     20 maximum allowed number of steps=    100.
 GradGradGradGradGradGradGradGradGradGradGradGradGradGradGradGradGradGrad

 Leave Link  103 at Mon Jul 23 16:32:32 2012, MaxMem= 1610612736 cpu:       0.1
 (Enter /group/hpc-share/gaussian/2009B/g09/l202.exe)
                          Input orientation:                          
 ---------------------------------------------------------------------
 Center     Atomic      Atomic             Coordinates (Angstroms)
 Number     Number       Type             X           Y           Z
 ---------------------------------------------------------------------
      1          7           0        0.000000    0.000000    0.000000
      2          8           0        0.000000    0.000000    1.200000
 ---------------------------------------------------------------------
 Stoichiometry    NO(1-)
 Framework group  C*V[C*(NO)]
 Deg. of freedom     1
 Full point group                 C*V     NOp   4
 Largest Abelian subgroup         C2V     NOp   4
 Largest concise Abelian subgroup C1      NOp   1
                         Standard orientation:                         
 ---------------------------------------------------------------------
 Center     Atomic      Atomic             Coordinates (Angstroms)
 Number     Number       Type             X           Y           Z
 ---------------------------------------------------------------------
      1          7           0        0.000000    0.000000   -0.640000
      2          8           0        0.000000    0.000000    0.560000
 ---------------------------------------------------------------------
 Rotational constants (GHZ):      0.0000000     47.0047264     47.0047264
 Leave Link  202 at Mon Jul 23 16:32:32 2012, MaxMem= 1610612736 cpu:       0.0
 (Enter /group/hpc-share/gaussian/2009B/g09/l301.exe)
 Standard basis: 6-311G(2d,d,p) (5D, 7F)
 Ernie: Thresh=  0.10000D-02 Tol=  0.10000D-05 Strict=F.
 There are    18 symmetry adapted basis functions of A1  symmetry.
 There are     2 symmetry adapted basis functions of A2  symmetry.
 There are     8 symmetry adapted basis functions of B1  symmetry.
 There are     8 symmetry adapted basis functions of B2  symmetry.
 Integral buffers will be    131072 words long.
 Raffenetti 2 integral format.
 Two-electron integral symmetry is turned on.
    36 basis functions,    64 primitive gaussians,    38 cartesian basis functions
     8 alpha electrons        8 beta electrons
       nuclear repulsion energy        24.6949364009 Hartrees.
 IExCor=  402 DFT=T Ex+Corr=B3LYP ExCW=0 ScaHFX=  0.200000
 ScaDFX=  0.800000  0.720000  1.000000  0.810000 ScalE2=  1.000000  1.000000
 IRadAn=      0 IRanWt=     -1 IRanGd=            0 ICorTp=0
 NAtoms=    2 NActive=    2 NUniq=    2 SFac= 1.00D+00 NAtFMM=   50 NAOKFM=F Big=F
 ------------------------------------------------------------------------------
 Polarizable Continuum Model (PCM)
 =================================
 Model                : PCM.
 Atomic radii         : UFF (Universal Force Field).
 Polarization charges : Total charges.
 Charge compensation  : None.
 Solution method      : Matrix inversion.
 Cavity type          : Scaled VdW (van der Waals Surface) (Alpha=1.100).
 Cavity algorithm     : GePol (No added spheres)
                        Default sphere list used, NSphG=    2.
                        Lebedev-Laikov grids with approx.  5.0 points / Ang**2.
                        Smoothing algorithm: Karplus/York (Gamma=1.0000).
                        Polarization charges: spherical gaussians, with
                                              point-specific exponents (IZeta= 3).
                        Self-potential: point-specific (ISelfS= 7).
                        Self-field    : sphere-specific E.n sum rule (ISelfD= 2).
 1st derivatives      : Analytical E(r).r(x)/FMM algorithm (CHGder, D1EAlg=3).
                        Cavity 1st derivative terms included.
 Solvent              : Water, Eps=  78.355300 Eps(inf)=   1.777849
 ------------------------------------------------------------------------------
 Spheres list:
 ISph  on   Nord    Re0     Alpha      Xe            Ye            Ze
    1   N      1    1.830   1.100      0.000000      0.000000     -0.640000
    2   O      2    1.750   1.100      0.000000      0.000000      0.560000
 ------------------------------------------------------------------------------
 GePol: Number of generator spheres                  =       2
 GePol: Total number of spheres                      =       2
 GePol: Number of exposed spheres                    =       2 (100.00%)
 GePol: Number of points                             =     438
 GePol: Average weight of points                     =       0.15
 GePol: Minimum weight of points                     =   0.11D-05
 GePol: Maximum weight of points                     =    0.18586
 GePol: Number of points with low weight             =      16
 GePol: Fraction of low-weight points (<1% of avg)   =       3.65%
 GePol: Cavity surface area                          =     63.626 Ang**2
 GePol: Cavity volume                                =     46.236 Ang**3
 Leave Link  301 at Mon Jul 23 16:32:33 2012, MaxMem= 1610612736 cpu:       2.9
 (Enter /group/hpc-share/gaussian/2009B/g09/l302.exe)
 NPDir=0 NMtPBC=     1 NCelOv=     1 NCel=       1 NClECP=     1 NCelD=      1
         NCelK=      1 NCelE2=     1 NClLst=     1 CellRange=     0.0.
 One-electron integrals computed using PRISM.
 NBasis=    36 RedAO= T  NBF=    18     2     8     8
 NBsUse=    36 1.00D-06 NBFU=    18     2     8     8
 Precomputing XC quadrature grid using
 IXCGrd= 2 IRadAn=           0 IRanWt=          -1 IRanGd=           0 AccXCQ= 0.00D+00.
 NRdTot=     121 NPtTot=       15216 NUsed=       16102 NTot=       16134
 NSgBfM=    38    38    38    38    38 NAtAll=     2     2.
 Leave Link  302 at Mon Jul 23 16:32:34 2012, MaxMem= 1610612736 cpu:       1.7
 (Enter /group/hpc-share/gaussian/2009B/g09/l303.exe)
 DipDrv:  MaxL=1.
 Leave Link  303 at Mon Jul 23 16:32:40 2012, MaxMem= 1610612736 cpu:      20.7
 (Enter /group/hpc-share/gaussian/2009B/g09/l401.exe)
 Harris functional with IExCor=  402 diagonalized for initial guess.
 ExpMin= 2.01D-01 ExpMax= 8.59D+03 ExpMxC= 1.30D+03 IAcc=1 IRadAn=         1 AccDes= 0.00D+00
 HarFok:  IExCor=  402 AccDes= 0.00D+00 IRadAn=         1 IDoV= 1
 ScaDFX=  1.000000  1.000000  1.000000  1.000000
 FoFCou: FMM=F IPFlag=           0 FMFlag=      100000 FMFlg1=           0
         NFxFlg=           0 DoJE=T BraDBF=F KetDBF=T FulRan=T
         Omega=  0.000000  0.000000  1.000000  0.000000  0.000000 ICntrl=     500 IOpCl=  0
         NMat0=    1 NMatS0=    1 NMatT0=    0 NMatD0=    1 NMtDS0=    0 NMtDT0=    0
         I1Cent=           4 NGrid=           0.
 Petite list used in FoFCou.
 Harris En= -130.035781540097    
 Initial guess orbital symmetries:
       Occupied  (SG) (SG) (SG) (SG) (PI) (PI) (SG) (PI)
       Virtual   (PI) (SG) (PI) (PI) (SG) (SG) (SG) (PI) (PI) (SG)
                 (PI) (PI) (DLTA) (DLTA) (SG) (DLTA) (DLTA) (PI)
                 (PI) (SG) (PI) (PI) (SG) (PI) (PI) (SG) (SG) (SG)
 Leave Link  401 at Mon Jul 23 16:32:43 2012, MaxMem= 1610612736 cpu:       1.6
 (Enter /group/hpc-share/gaussian/2009B/g09/l502.exe)
 Closed shell SCF:
 Requested convergence on RMS density matrix=1.00D-08 within 128 cycles.
 Requested convergence on MAX density matrix=1.00D-06.
 Requested convergence on             energy=1.00D-06.
 No special actions if energy rises.
 Using DIIS extrapolation, IDIIS=  1040.
 Integral symmetry usage will be decided dynamically.
        16071 words used for storage of precomputed grid.
 Keep R1 ints in memory in canonical form, NReq=3398769.
 IEnd=       39161 IEndB=       39161 NGot=  1610612736 MDV=  1610316759
 LenX=  1610316759 LenY=  1610314874
 Symmetry not used in FoFDir.
 MinBra= 0 MaxBra= 2 Meth= 1.
 IRaf=       0 NMat=   1 IRICut=       1 DoRegI=T DoRafI=F ISym2E= 0 JSym2E=0.

 Cycle   1  Pass 1  IDiag  1:
 E= -129.910568644931    
 DIIS: error= 5.88D-02 at cycle   1 NSaved=   1.
 NSaved= 1 IEnMin= 1 EnMin= -129.910568644931     IErMin= 1 ErrMin= 5.88D-02
 ErrMax= 5.88D-02 EMaxC= 1.00D-01 BMatC= 7.61D-02 BMatP= 7.61D-02
 IDIUse=3 WtCom= 4.12D-01 WtEn= 5.88D-01
 Coeff-Com:  0.100D+01
 Coeff-En:   0.100D+01
 Coeff:      0.100D+01
 Gap=     0.068 Goal=   None    Shift=    0.000
 GapD=    0.068 DampG=0.500 DampE=0.500 DampFc=0.2500 IDamp=-1.
 Damping current iteration by 2.50D-01
 RMSDP=1.25D-02 MaxDP=2.05D-01              OVMax= 1.32D-01

 Cycle   2  Pass 1  IDiag  1:
 E= -129.931237279494     Delta-E=       -0.020668634563 Rises=F Damp=T
 DIIS: error= 3.00D-02 at cycle   2 NSaved=   2.
 NSaved= 2 IEnMin= 2 EnMin= -129.931237279494     IErMin= 2 ErrMin= 3.00D-02
 ErrMax= 3.00D-02 EMaxC= 1.00D-01 BMatC= 2.04D-02 BMatP= 7.61D-02
 IDIUse=3 WtCom= 7.00D-01 WtEn= 3.00D-01
 Coeff-Com: -0.959D+00 0.196D+01
 Coeff-En:   0.000D+00 0.100D+01
 Coeff:     -0.672D+00 0.167D+01
 Gap=     0.066 Goal=   None    Shift=    0.000
 RMSDP=4.58D-03 MaxDP=7.81D-02 DE=-2.07D-02 OVMax= 6.64D-02

 Cycle   3  Pass 1  IDiag  1:
 E= -129.965637172021     Delta-E=       -0.034399892527 Rises=F Damp=F
 DIIS: error= 8.50D-03 at cycle   3 NSaved=   3.
 NSaved= 3 IEnMin= 3 EnMin= -129.965637172021     IErMin= 3 ErrMin= 8.50D-03
 ErrMax= 8.50D-03 EMaxC= 1.00D-01 BMatC= 2.59D-03 BMatP= 2.04D-02
 IDIUse=3 WtCom= 9.15D-01 WtEn= 8.50D-02
 Coeff-Com: -0.326D+00 0.770D+00 0.556D+00
 Coeff-En:   0.000D+00 0.000D+00 0.100D+01
 Coeff:     -0.298D+00 0.704D+00 0.594D+00
 Gap=     0.066 Goal=   None    Shift=    0.000
 RMSDP=1.59D-03 MaxDP=2.76D-02 DE=-3.44D-02 OVMax= 2.54D-02

 Cycle   4  Pass 1  IDiag  1:
 E= -129.967065122391     Delta-E=       -0.001427950370 Rises=F Damp=F
 DIIS: error= 6.97D-03 at cycle   4 NSaved=   4.
 NSaved= 4 IEnMin= 4 EnMin= -129.967065122391     IErMin= 4 ErrMin= 6.97D-03
 ErrMax= 6.97D-03 EMaxC= 1.00D-01 BMatC= 8.95D-04 BMatP= 2.59D-03
 IDIUse=3 WtCom= 9.30D-01 WtEn= 6.97D-02
 Coeff-Com:  0.241D-01 0.342D-01 0.397D+00 0.544D+00
 Coeff-En:   0.000D+00 0.000D+00 0.247D+00 0.753D+00
 Coeff:      0.225D-01 0.319D-01 0.387D+00 0.559D+00
 Gap=     0.066 Goal=   None    Shift=    0.000
 RMSDP=4.82D-04 MaxDP=7.79D-03 DE=-1.43D-03 OVMax= 1.17D-02

 Cycle   5  Pass 1  IDiag  1:
 E= -129.967713278810     Delta-E=       -0.000648156419 Rises=F Damp=F
 DIIS: error= 4.95D-04 at cycle   5 NSaved=   5.
 NSaved= 5 IEnMin= 5 EnMin= -129.967713278810     IErMin= 5 ErrMin= 4.95D-04
 ErrMax= 4.95D-04 EMaxC= 1.00D-01 BMatC= 5.85D-06 BMatP= 8.95D-04
 IDIUse=3 WtCom= 9.95D-01 WtEn= 4.95D-03
 Coeff-Com:  0.109D-01-0.145D-01 0.458D-01 0.129D+00 0.829D+00
 Coeff-En:   0.000D+00 0.000D+00 0.000D+00 0.000D+00 0.100D+01
 Coeff:      0.108D-01-0.144D-01 0.455D-01 0.128D+00 0.830D+00
 Gap=     0.066 Goal=   None    Shift=    0.000
 RMSDP=3.22D-05 MaxDP=3.38D-04 DE=-6.48D-04 OVMax= 8.09D-04

 Cycle   6  Pass 1  IDiag  1:
 E= -129.967717105026     Delta-E=       -0.000003826216 Rises=F Damp=F
 DIIS: error= 4.09D-06 at cycle   6 NSaved=   6.
 NSaved= 6 IEnMin= 6 EnMin= -129.967717105026     IErMin= 6 ErrMin= 4.09D-06
 ErrMax= 4.09D-06 EMaxC= 1.00D-01 BMatC= 4.63D-10 BMatP= 5.85D-06
 IDIUse=1 WtCom= 1.00D+00 WtEn= 0.00D+00
 Coeff-Com: -0.328D-03 0.349D-03-0.178D-02-0.422D-02-0.189D-01 0.102D+01
 Coeff:     -0.328D-03 0.349D-03-0.178D-02-0.422D-02-0.189D-01 0.102D+01
 Gap=     0.066 Goal=   None    Shift=    0.000
 RMSDP=1.12D-06 MaxDP=1.93D-05 DE=-3.83D-06 OVMax= 1.33D-05

 Cycle   7  Pass 1  IDiag  1:
 E= -129.967717105696     Delta-E=       -0.000000000671 Rises=F Damp=F
 DIIS: error= 5.26D-07 at cycle   7 NSaved=   7.
 NSaved= 7 IEnMin= 7 EnMin= -129.967717105696     IErMin= 7 ErrMin= 5.26D-07
 ErrMax= 5.26D-07 EMaxC= 1.00D-01 BMatC= 4.80D-12 BMatP= 4.63D-10
 IDIUse=1 WtCom= 1.00D+00 WtEn= 0.00D+00
 Coeff-Com: -0.248D-04 0.334D-04-0.136D-03-0.407D-03-0.249D-02-0.104D-01
 Coeff-Com:  0.101D+01
 Coeff:     -0.248D-04 0.334D-04-0.136D-03-0.407D-03-0.249D-02-0.104D-01
 Coeff:      0.101D+01
 Gap=     0.066 Goal=   None    Shift=    0.000
 RMSDP=1.02D-07 MaxDP=1.77D-06 DE=-6.71D-10 OVMax= 1.38D-06

 Cycle   8  Pass 1  IDiag  1:
 E= -129.967717105703     Delta-E=       -0.000000000007 Rises=F Damp=F
 DIIS: error= 7.58D-08 at cycle   8 NSaved=   8.
 NSaved= 8 IEnMin= 8 EnMin= -129.967717105703     IErMin= 8 ErrMin= 7.58D-08
 ErrMax= 7.58D-08 EMaxC= 1.00D-01 BMatC= 2.29D-13 BMatP= 4.80D-12
 IDIUse=1 WtCom= 1.00D+00 WtEn= 0.00D+00
 Coeff-Com:  0.506D-05-0.557D-05 0.149D-04 0.180D-04 0.434D-04-0.149D-01
 Coeff-Com:  0.742D-01 0.941D+00
 Coeff:      0.506D-05-0.557D-05 0.149D-04 0.180D-04 0.434D-04-0.149D-01
 Coeff:      0.742D-01 0.941D+00
 Gap=     0.066 Goal=   None    Shift=    0.000
 RMSDP=1.70D-08 MaxDP=2.41D-07 DE=-6.74D-12 OVMax= 1.51D-07

 Cycle   9  Pass 1  IDiag  1:
 E= -129.967717105703     Delta-E=        0.000000000000 Rises=F Damp=F
 DIIS: error= 9.26D-09 at cycle   9 NSaved=   9.
 NSaved= 9 IEnMin= 9 EnMin= -129.967717105703     IErMin= 9 ErrMin= 9.26D-09
 ErrMax= 9.26D-09 EMaxC= 1.00D-01 BMatC= 8.18D-16 BMatP= 2.29D-13
 IDIUse=1 WtCom= 1.00D+00 WtEn= 0.00D+00
 Coeff-Com: -0.840D-07 0.158D-06 0.519D-06 0.268D-05 0.157D-04 0.482D-04
 Coeff-Com: -0.463D-02-0.823D-04 0.100D+01
 Coeff:     -0.840D-07 0.158D-06 0.519D-06 0.268D-05 0.157D-04 0.482D-04
 Coeff:     -0.463D-02-0.823D-04 0.100D+01
 Gap=     0.066 Goal=   None    Shift=    0.000
 RMSDP=6.05D-10 MaxDP=6.40D-09 DE=-2.27D-13 OVMax= 2.47D-08

 Error on total polarization charges =  0.00414
 SCF Done:  E(RB3LYP) =  -129.967717106     A.U. after    9 cycles
             Convg  =    0.6048D-09             -V/T =  1.9999
 KE= 1.299791452916D+02 PE=-3.620980759894D+02 EE= 7.745627719124D+01
 Leave Link  502 at Mon Jul 23 16:32:45 2012, MaxMem= 1610612736 cpu:       8.6
 (Enter /group/hpc-share/gaussian/2009B/g09/l601.exe)
 Copying SCF densities to generalized density rwf, IOpCl= 0 IROHF=0.

 **********************************************************************

            Population analysis using the SCF density.

 **********************************************************************

 Orbital symmetries:
       Occupied  (SG) (SG) (SG) (SG) (PI) (PI) (SG) (PI)
       Virtual   (PI) (SG) (PI) (PI) (SG) (SG) (SG) (PI) (PI) (SG)
                 (PI) (PI) (DLTA) (DLTA) (SG) (DLTA) (DLTA) (PI)
                 (PI) (SG) (PI) (PI) (SG) (PI) (PI) (SG) (SG) (SG)
 Unable to determine electronic state:  partially filled degenerate orbitals.
 Alpha  occ. eigenvalues --  -19.04491 -14.21895  -1.01946  -0.51314  -0.32786
 Alpha  occ. eigenvalues --   -0.32005  -0.30538  -0.02417
 Alpha virt. eigenvalues --    0.04155   0.38979   0.65870   0.66776   0.70741
 Alpha virt. eigenvalues --    0.74800   0.83828   0.87668   0.88493   1.36833
 Alpha virt. eigenvalues --    1.97172   1.99979   2.04377   2.04723   2.61609
 Alpha virt. eigenvalues --    2.92490   2.92618   3.31687   3.34013   3.59268
 Alpha virt. eigenvalues --    3.83830   3.86203   4.32413   4.89962   4.91940
 Alpha virt. eigenvalues --    5.67981  35.40701  49.90686
          Condensed to atoms (all electrons):
              1          2
     1  N    7.599249  -0.029739
     2  O   -0.029739   8.460229
 Mulliken atomic charges:
              1
     1  N   -0.569510
     2  O   -0.430490
 Sum of Mulliken atomic charges =  -1.00000
 Mulliken charges with hydrogens summed into heavy atoms:
              1
     1  N   -0.569510
     2  O   -0.430490
 Sum of Mulliken charges with hydrogens summed into heavy atoms =  -1.00000
 Electronic spatial extent (au):  <R**2>=             49.8963
 Charge=             -1.0000 electrons
 Dipole moment (field-independent basis, Debye):
    X=              0.0000    Y=              0.0000    Z=              1.1578  Tot=              1.1578
 Quadrupole moment (field-independent basis, Debye-Ang):
   XX=            -11.1847   YY=            -13.9497   ZZ=            -16.1558
   XY=              0.0000   XZ=              0.0000   YZ=              0.0000
 Traceless Quadrupole moment (field-independent basis, Debye-Ang):
   XX=              2.5787   YY=             -0.1863   ZZ=             -2.3924
   XY=              0.0000   XZ=              0.0000   YZ=              0.0000
 Octapole moment (field-independent basis, Debye-Ang**2):
  XXX=              0.0000  YYY=              0.0000  ZZZ=              4.7097  XYY=              0.0000
  XXY=              0.0000  XXZ=              0.9190  XZZ=              0.0000  YZZ=              0.0000
  YYZ=              2.1947  XYZ=              0.0000
 Hexadecapole moment (field-independent basis, Debye-Ang**3):
 XXXX=             -8.7814 YYYY=            -12.8559 ZZZZ=            -41.2457 XXXY=              0.0000
 XXXZ=              0.0000 YYYX=              0.0000 YYYZ=              0.0000 ZZZX=              0.0000
 ZZZY=              0.0000 XXYY=             -3.6062 XXZZ=             -7.6948 YYZZ=            -10.2043
 XXYZ=              0.0000 YYXZ=              0.0000 ZZXY=              0.0000
 N-N= 2.469493640087D+01 E-N=-3.620980759103D+02  KE= 1.299791452916D+02
 Symmetry A1   KE= 1.176040771177D+02
 Symmetry A2   KE= 1.390020881855D-35
 Symmetry B1   KE= 3.890079410723D+00
 Symmetry B2   KE= 8.484988763177D+00
 No NMR shielding tensors so no spin-rotation constants.
 Leave Link  601 at Mon Jul 23 16:32:46 2012, MaxMem= 1610612736 cpu:       3.0
 (Enter /group/hpc-share/gaussian/2009B/g09/l701.exe)
 Compute integral first derivatives.
 ... and contract with generalized density number  0.
 D1PCM: PCM CHGder 1st derivatives, ID1Alg=3 FixD1E=F DoIter=F DoCFld=F I1PDM=0.
 GePol: Maximum number of non-zero 1st derivatives   =     269
 Leave Link  701 at Mon Jul 23 16:32:54 2012, MaxMem= 1610612736 cpu:      12.3
 (Enter /group/hpc-share/gaussian/2009B/g09/l702.exe)
 L702 exits ... SP integral derivatives will be done elsewhere.
 Leave Link  702 at Mon Jul 23 16:32:54 2012, MaxMem= 1610612736 cpu:       0.2
 (Enter /group/hpc-share/gaussian/2009B/g09/l703.exe)
 Compute integral first derivatives, UseDBF=F ICtDFT=           0.
 Integral derivatives from FoFDir, PRISM(SPDF).
 Calling FoFJK, ICntrl=      2127 FMM=F ISym2X=1 I1Cent= 0 IOpClX= 0 NMat=1 NMatS=1 NMatT=0.
 FoFCou: FMM=F IPFlag=           0 FMFlag=      100000 FMFlg1=         800
         NFxFlg=           0 DoJE=F BraDBF=F KetDBF=F FulRan=T
         Omega=  0.000000  0.000000  1.000000  0.000000  0.000000 ICntrl=    2127 IOpCl=  0
         NMat0=    1 NMatS0=    1 NMatT0=    0 NMatD0=    1 NMtDS0=    0 NMtDT0=    0
         I1Cent=           0 NGrid=           0.
 Petite list used in FoFCou.
 Leave Link  703 at Mon Jul 23 16:32:55 2012, MaxMem= 1610612736 cpu:       2.1
 (Enter /group/hpc-share/gaussian/2009B/g09/l716.exe)
 Dipole        = 0.00000000D+00 0.00000000D+00 4.55526757D-01
 ***** Axes restored to original set *****
 -------------------------------------------------------------------
 Center     Atomic                   Forces (Hartrees/Bohr)
 Number     Number              X              Y              Z
 -------------------------------------------------------------------
      1        7           0.000000000    0.000000000   -0.092828738
      2        8           0.000000000    0.000000000    0.092828738
 -------------------------------------------------------------------
 Cartesian Forces:  Max     0.092828738 RMS     0.053594697
 Leave Link  716 at Mon Jul 23 16:32:56 2012, MaxMem= 1610612736 cpu:       0.1
 (Enter /group/hpc-share/gaussian/2009B/g09/l103.exe)

 GradGradGradGradGradGradGradGradGradGradGradGradGradGradGradGradGradGrad
 Berny optimization.
 Internal  Forces:  Max     0.092828738 RMS     0.092828738
 Search for a local minimum.
 Step number   1 out of a maximum of   20
 All quantities printed in internal units (Hartrees-Bohrs-Radians)
 RMS Force = .92829D-01 SwitMx=.10000D-02 MixMth= 1
 Mixed Optimization -- RFO/linear search
 Second derivative matrix not updated -- first step.
 The second derivative matrix:
                          R1
           R1           1.04823
 ITU=  0
     Eigenvalues ---    1.04823
 RFO step:  Lambda=-8.15720712D-03 EMin= 1.04823065D+00
 Linear search not attempted -- first point.
 Iteration  1 RMS(Cart)=  0.06213611 RMS(Int)=  0.00000000
 Iteration  2 RMS(Cart)=  0.00000000 RMS(Int)=  0.00000000
 ClnCor:  largest displacement from symmetrization is 0.00D+00 for atom     0.
 Variable       Old X    -DE/DX   Delta X   Delta X   Delta X     New X
                                 (Linear)    (Quad)   (Total)
    R1        2.26767   0.09283   0.00000   0.08787   0.08787   2.35555
         Item               Value     Threshold  Converged?
 Maximum Force            0.092829     0.000450     NO 
 RMS     Force            0.092829     0.000300     NO 
 Maximum Displacement     0.043937     0.001800     NO 
 RMS     Displacement     0.062136     0.001200     NO 
 Predicted change in Energy=-4.110098D-03
 GradGradGradGradGradGradGradGradGradGradGradGradGradGradGradGradGradGrad

 Leave Link  103 at Mon Jul 23 16:32:57 2012, MaxMem= 1610612736 cpu:       3.3
 (Enter /group/hpc-share/gaussian/2009B/g09/l202.exe)
                          Input orientation:                          
 ---------------------------------------------------------------------
 Center     Atomic      Atomic             Coordinates (Angstroms)
 Number     Number       Type             X           Y           Z
 ---------------------------------------------------------------------
      1          7           0        0.000000    0.000000   -0.023250
      2          8           0        0.000000    0.000000    1.223250
 ---------------------------------------------------------------------
 Stoichiometry    NO(1-)
 Framework group  C*V[C*(NO)]
 Deg. of freedom     1
 Full point group                 C*V     NOp   4
 Largest Abelian subgroup         C2V     NOp   4
 Largest concise Abelian subgroup C1      NOp   1
                         Standard orientation:                         
 ---------------------------------------------------------------------
 Center     Atomic      Atomic             Coordinates (Angstroms)
 Number     Number       Type             X           Y           Z
 ---------------------------------------------------------------------
      1          7           0        0.000000    0.000000   -0.664800
      2          8           0        0.000000    0.000000    0.581700
 ---------------------------------------------------------------------
 Rotational constants (GHZ):      0.0000000     43.5631140     43.5631140
 Leave Link  202 at Mon Jul 23 16:32:57 2012, MaxMem= 1610612736 cpu:       0.0
 (Enter /group/hpc-share/gaussian/2009B/g09/l301.exe)
 Standard basis: 6-311G(2d,d,p) (5D, 7F)
 Ernie: Thresh=  0.10000D-02 Tol=  0.10000D-05 Strict=F.
 There are    18 symmetry adapted basis functions of A1  symmetry.
 There are     2 symmetry adapted basis functions of A2  symmetry.
 There are     8 symmetry adapted basis functions of B1  symmetry.
 There are     8 symmetry adapted basis functions of B2  symmetry.
 Integral buffers will be    131072 words long.
 Raffenetti 2 integral format.
 Two-electron integral symmetry is turned on.
    36 basis functions,    64 primitive gaussians,    38 cartesian basis functions
     8 alpha electrons        8 beta electrons
       nuclear repulsion energy        23.7736905700 Hartrees.
 IExCor=  402 DFT=T Ex+Corr=B3LYP ExCW=0 ScaHFX=  0.200000
 ScaDFX=  0.800000  0.720000  1.000000  0.810000 ScalE2=  1.000000  1.000000
 IRadAn=      0 IRanWt=     -1 IRanGd=            0 ICorTp=0
 NAtoms=    2 NActive=    2 NUniq=    2 SFac= 1.00D+00 NAtFMM=   50 NAOKFM=F Big=F
 ------------------------------------------------------------------------------
 Polarizable Continuum Model (PCM)
 =================================
 Model                : PCM.
 Atomic radii         : UFF (Universal Force Field).
 Polarization charges : Total charges.
 Charge compensation  : None.
 Solution method      : Matrix inversion.
 Cavity type          : Scaled VdW (van der Waals Surface) (Alpha=1.100).
 Cavity algorithm     : GePol (No added spheres)
                        Default sphere list used, NSphG=    2.
                        Lebedev-Laikov grids with approx.  5.0 points / Ang**2.
                        Smoothing algorithm: Karplus/York (Gamma=1.0000).
                        Polarization charges: spherical gaussians, with
                                              point-specific exponents (IZeta= 3).
                        Self-potential: point-specific (ISelfS= 7).
                        Self-field    : sphere-specific E.n sum rule (ISelfD= 2).
 1st derivatives      : Analytical E(r).r(x)/FMM algorithm (CHGder, D1EAlg=3).
                        Cavity 1st derivative terms included.
 Solvent              : Water, Eps=  78.355300 Eps(inf)=   1.777849
 ------------------------------------------------------------------------------
 Spheres list:
 ISph  on   Nord    Re0     Alpha      Xe            Ye            Ze
    1   N      1    1.830   1.100      0.000000      0.000000     -0.664800
    2   O      2    1.750   1.100      0.000000      0.000000      0.581700
 ------------------------------------------------------------------------------
 GePol: Number of generator spheres                  =       2
 GePol: Total number of spheres                      =       2
 GePol: Number of exposed spheres                    =       2 (100.00%)
 GePol: Number of points                             =     438
 GePol: Average weight of points                     =       0.15
 GePol: Minimum weight of points                     =   0.70D-04
 GePol: Maximum weight of points                     =    0.18586
 GePol: Number of points with low weight             =      16
 GePol: Fraction of low-weight points (<1% of avg)   =       3.65%
 GePol: Cavity surface area                          =     64.208 Ang**2
 GePol: Cavity volume                                =     46.751 Ang**3
 Leave Link  301 at Mon Jul 23 16:32:57 2012, MaxMem= 1610612736 cpu:       0.4
 (Enter /group/hpc-share/gaussian/2009B/g09/l302.exe)
 NPDir=0 NMtPBC=     1 NCelOv=     1 NCel=       1 NClECP=     1 NCelD=      1
         NCelK=      1 NCelE2=     1 NClLst=     1 CellRange=     0.0.
 One-electron integrals computed using PRISM.
 NBasis=    36 RedAO= T  NBF=    18     2     8     8
 NBsUse=    36 1.00D-06 NBFU=    18     2     8     8
 Precomputing XC quadrature grid using
 IXCGrd= 2 IRadAn=           0 IRanWt=          -1 IRanGd=           0 AccXCQ= 0.00D+00.
 NRdTot=     121 NPtTot=       15216 NUsed=       16102 NTot=       16134
 NSgBfM=    38    38    38    38    38 NAtAll=     2     2.
 Leave Link  302 at Mon Jul 23 16:32:58 2012, MaxMem= 1610612736 cpu:       0.9
 (Enter /group/hpc-share/gaussian/2009B/g09/l303.exe)
 DipDrv:  MaxL=1.
 Leave Link  303 at Mon Jul 23 16:32:58 2012, MaxMem= 1610612736 cpu:       0.1
 (Enter /group/hpc-share/gaussian/2009B/g09/l401.exe)
 Initial guess read from the read-write file.
 B after Tr=     0.000000    0.000000    0.000000
         Rot=    1.000000    0.000000    0.000000    0.000000 Ang=   0.00 deg.
 Guess basis will be translated and rotated to current coordinates.
 Initial guess orbital symmetries:
       Occupied  (SG) (SG) (SG) (SG) (PI) (PI) (SG) (PI)
       Virtual   (PI) (SG) (PI) (PI) (SG) (SG) (SG) (PI) (PI) (SG)
                 (PI) (PI) (DLTA) (DLTA) (SG) (DLTA) (DLTA) (PI)
                 (PI) (SG) (PI) (PI) (SG) (PI) (PI) (SG) (SG) (SG)
 Generating alternative initial guess.
 Harris functional with IExCor=  402 diagonalized for initial guess.
 ExpMin= 2.01D-01 ExpMax= 8.59D+03 ExpMxC= 1.30D+03 IAcc=1 IRadAn=         1 AccDes= 0.00D+00
 HarFok:  IExCor=  402 AccDes= 0.00D+00 IRadAn=         1 IDoV= 1
 ScaDFX=  1.000000  1.000000  1.000000  1.000000
 FoFCou: FMM=F IPFlag=           0 FMFlag=      100000 FMFlg1=           0
         NFxFlg=           0 DoJE=T BraDBF=F KetDBF=T FulRan=T
         Omega=  0.000000  0.000000  1.000000  0.000000  0.000000 ICntrl=     500 IOpCl=  0
         NMat0=    1 NMatS0=    1 NMatT0=    0 NMatD0=    1 NMtDS0=    0 NMtDT0=    0
         I1Cent=           4 NGrid=           0.
 Petite list used in FoFCou.
 Harris En= -130.038051777202    
 Leave Link  401 at Mon Jul 23 16:32:58 2012, MaxMem= 1610612736 cpu:       1.4
 (Enter /group/hpc-share/gaussian/2009B/g09/l502.exe)
 Closed shell SCF:
 Requested convergence on RMS density matrix=1.00D-08 within 128 cycles.
 Requested convergence on MAX density matrix=1.00D-06.
 Requested convergence on             energy=1.00D-06.
 No special actions if energy rises.
 Using DIIS extrapolation, IDIIS=  1040.
 Integral symmetry usage will be decided dynamically.
        16071 words used for storage of precomputed grid.
 Keep R1 ints in memory in canonical form, NReq=3398531.
 IEnd=       39161 IEndB=       39161 NGot=  1610612736 MDV=  1610316759
 LenX=  1610316759 LenY=  1610314874
 Symmetry not used in FoFDir.
 MinBra= 0 MaxBra= 2 Meth= 1.
 IRaf=       0 NMat=   1 IRICut=       1 DoRegI=T DoRafI=F ISym2E= 0 JSym2E=0.

 Cycle   1  Pass 1  IDiag  1:
 E= -129.970921432290    
 DIIS: error= 7.96D-03 at cycle   1 NSaved=   1.
 NSaved= 1 IEnMin= 1 EnMin= -129.970921432290     IErMin= 1 ErrMin= 7.96D-03
 ErrMax= 7.96D-03 EMaxC= 1.00D-01 BMatC= 1.64D-03 BMatP= 1.64D-03
 IDIUse=3 WtCom= 9.20D-01 WtEn= 7.96D-02
 Coeff-Com:  0.100D+01
 Coeff-En:   0.100D+01
 Coeff:      0.100D+01
 Gap=     0.066 Goal=   None    Shift=    0.000
 GapD=    0.066 DampG=0.500 DampE=1.000 DampFc=0.5000 IDamp=-1.
 Damping current iteration by 5.00D-01
 RMSDP=1.23D-03 MaxDP=1.28D-02              OVMax= 1.18D-02

 Cycle   2  Pass 1  IDiag  1:
 E= -129.971736194402     Delta-E=       -0.000814762112 Rises=F Damp=T
 DIIS: error= 3.78D-03 at cycle   2 NSaved=   2.
 NSaved= 2 IEnMin= 2 EnMin= -129.971736194402     IErMin= 2 ErrMin= 3.78D-03
 ErrMax= 3.78D-03 EMaxC= 1.00D-01 BMatC= 4.09D-04 BMatP= 1.64D-03
 IDIUse=3 WtCom= 9.62D-01 WtEn= 3.78D-02
 Coeff-Com: -0.873D+00 0.187D+01
 Coeff-En:   0.000D+00 0.100D+01
 Coeff:     -0.840D+00 0.184D+01
 Gap=     0.065 Goal=   None    Shift=    0.000
 RMSDP=8.58D-04 MaxDP=9.96D-03 DE=-8.15D-04 OVMax= 4.15D-03

 Cycle   3  Pass 1  IDiag  1:
 E= -129.972564737974     Delta-E=       -0.000828543572 Rises=F Damp=F
 DIIS: error= 1.54D-03 at cycle   3 NSaved=   3.
 NSaved= 3 IEnMin= 3 EnMin= -129.972564737974     IErMin= 3 ErrMin= 1.54D-03
 ErrMax= 1.54D-03 EMaxC= 1.00D-01 BMatC= 6.02D-05 BMatP= 4.09D-04
 IDIUse=3 WtCom= 9.85D-01 WtEn= 1.54D-02
 Coeff-Com: -0.490D+00 0.941D+00 0.549D+00
 Coeff-En:   0.000D+00 0.000D+00 0.100D+01
 Coeff:     -0.482D+00 0.926D+00 0.556D+00
 Gap=     0.066 Goal=   None    Shift=    0.000
 RMSDP=1.46D-04 MaxDP=2.16D-03 DE=-8.29D-04 OVMax= 2.85D-03

 Cycle   4  Pass 1  IDiag  1:
 E= -129.972599347826     Delta-E=       -0.000034609852 Rises=F Damp=F
 DIIS: error= 7.36D-04 at cycle   4 NSaved=   4.
 NSaved= 4 IEnMin= 4 EnMin= -129.972599347826     IErMin= 4 ErrMin= 7.36D-04
 ErrMax= 7.36D-04 EMaxC= 1.00D-01 BMatC= 8.87D-06 BMatP= 6.02D-05
 IDIUse=3 WtCom= 9.93D-01 WtEn= 7.36D-03
 Coeff-Com: -0.291D+00 0.551D+00 0.379D+00 0.360D+00
 Coeff-En:   0.000D+00 0.000D+00 0.345D-01 0.965D+00
 Coeff:     -0.289D+00 0.547D+00 0.377D+00 0.365D+00
 Gap=     0.066 Goal=   None    Shift=    0.000
 RMSDP=4.46D-05 MaxDP=5.46D-04 DE=-3.46D-05 OVMax= 1.32D-03

 Cycle   5  Pass 1  IDiag  1:
 E= -129.972605599490     Delta-E=       -0.000006251663 Rises=F Damp=F
 DIIS: error= 8.66D-05 at cycle   5 NSaved=   5.
 NSaved= 5 IEnMin= 5 EnMin= -129.972605599490     IErMin= 5 ErrMin= 8.66D-05
 ErrMax= 8.66D-05 EMaxC= 1.00D-01 BMatC= 1.77D-07 BMatP= 8.87D-06
 IDIUse=1 WtCom= 1.00D+00 WtEn= 0.00D+00
 Coeff-Com: -0.176D-01 0.318D-01 0.423D-01 0.141D+00 0.802D+00
 Coeff:     -0.176D-01 0.318D-01 0.423D-01 0.141D+00 0.802D+00
 Gap=     0.066 Goal=   None    Shift=    0.000
 RMSDP=9.23D-06 MaxDP=1.64D-04 DE=-6.25D-06 OVMax= 1.33D-04

 Cycle   6  Pass 1  IDiag  1:
 E= -129.972605735620     Delta-E=       -0.000000136130 Rises=F Damp=F
 DIIS: error= 5.81D-06 at cycle   6 NSaved=   6.
 NSaved= 6 IEnMin= 6 EnMin= -129.972605735620     IErMin= 6 ErrMin= 5.81D-06
 ErrMax= 5.81D-06 EMaxC= 1.00D-01 BMatC= 1.05D-09 BMatP= 1.77D-07
 IDIUse=1 WtCom= 1.00D+00 WtEn= 0.00D+00
 Coeff-Com:  0.306D-02-0.606D-02-0.927D-03 0.188D-01 0.155D+00 0.830D+00
 Coeff:      0.306D-02-0.606D-02-0.927D-03 0.188D-01 0.155D+00 0.830D+00
 Gap=     0.066 Goal=   None    Shift=    0.000
 RMSDP=6.47D-07 MaxDP=1.23D-05 DE=-1.36D-07 OVMax= 8.32D-06

 Cycle   7  Pass 1  IDiag  1:
 E= -129.972605736276     Delta-E=       -0.000000000656 Rises=F Damp=F
 DIIS: error= 1.32D-06 at cycle   7 NSaved=   7.
 NSaved= 7 IEnMin= 7 EnMin= -129.972605736276     IErMin= 7 ErrMin= 1.32D-06
 ErrMax= 1.32D-06 EMaxC= 1.00D-01 BMatC= 3.71D-11 BMatP= 1.05D-09
 IDIUse=1 WtCom= 1.00D+00 WtEn= 0.00D+00
 Coeff-Com:  0.317D-03-0.615D-03-0.663D-03 0.130D-02 0.297D-02 0.719D-01
 Coeff-Com:  0.925D+00
 Coeff:      0.317D-03-0.615D-03-0.663D-03 0.130D-02 0.297D-02 0.719D-01
 Coeff:      0.925D+00
 Gap=     0.066 Goal=   None    Shift=    0.000
 RMSDP=1.23D-07 MaxDP=1.76D-06 DE=-6.56D-10 OVMax= 2.04D-06

 Cycle   8  Pass 1  IDiag  1:
 E= -129.972605736304     Delta-E=       -0.000000000028 Rises=F Damp=F
 DIIS: error= 6.79D-08 at cycle   8 NSaved=   8.
 NSaved= 8 IEnMin= 8 EnMin= -129.972605736304     IErMin= 8 ErrMin= 6.79D-08
 ErrMax= 6.79D-08 EMaxC= 1.00D-01 BMatC= 5.04D-14 BMatP= 3.71D-11
 IDIUse=1 WtCom= 1.00D+00 WtEn= 0.00D+00
 Coeff-Com: -0.209D-04 0.425D-04-0.188D-04-0.245D-03-0.186D-02-0.754D-02
 Coeff-Com:  0.325D-01 0.977D+00
 Coeff:     -0.209D-04 0.425D-04-0.188D-04-0.245D-03-0.186D-02-0.754D-02
 Coeff:      0.325D-01 0.977D+00
 Gap=     0.066 Goal=   None    Shift=    0.000
 RMSDP=7.03D-09 MaxDP=1.07D-07 DE=-2.76D-11 OVMax= 1.96D-07

 Error on total polarization charges =  0.00405
 SCF Done:  E(RB3LYP) =  -129.972605736     A.U. after    8 cycles
             Convg  =    0.7029D-08             -V/T =  2.0011
 KE= 1.298289434977D+02 PE=-3.601697817680D+02 EE= 7.659454196391D+01
 Leave Link  502 at Mon Jul 23 16:33:00 2012, MaxMem= 1610612736 cpu:       9.7
 (Enter /group/hpc-share/gaussian/2009B/g09/l701.exe)
 Compute integral first derivatives.
 ... and contract with generalized density number  0.
 D1PCM: PCM CHGder 1st derivatives, ID1Alg=3 FixD1E=F DoIter=F DoCFld=F I1PDM=0.
 GePol: Maximum number of non-zero 1st derivatives   =     261
 Leave Link  701 at Mon Jul 23 16:33:01 2012, MaxMem= 1610612736 cpu:       2.4
 (Enter /group/hpc-share/gaussian/2009B/g09/l702.exe)
 L702 exits ... SP integral derivatives will be done elsewhere.
 Leave Link  702 at Mon Jul 23 16:33:02 2012, MaxMem= 1610612736 cpu:       0.2
 (Enter /group/hpc-share/gaussian/2009B/g09/l703.exe)
 Compute integral first derivatives, UseDBF=F ICtDFT=           0.
 Integral derivatives from FoFDir, PRISM(SPDF).
 Calling FoFJK, ICntrl=      2127 FMM=F ISym2X=1 I1Cent= 0 IOpClX= 0 NMat=1 NMatS=1 NMatT=0.
 FoFCou: FMM=F IPFlag=           0 FMFlag=      100000 FMFlg1=         800
         NFxFlg=           0 DoJE=F BraDBF=F KetDBF=F FulRan=T
         Omega=  0.000000  0.000000  1.000000  0.000000  0.000000 ICntrl=    2127 IOpCl=  0
         NMat0=    1 NMatS0=    1 NMatT0=    0 NMatD0=    1 NMtDS0=    0 NMtDT0=    0
         I1Cent=           0 NGrid=           0.
 Petite list used in FoFCou.
 Leave Link  703 at Mon Jul 23 16:33:02 2012, MaxMem= 1610612736 cpu:       1.1
 (Enter /group/hpc-share/gaussian/2009B/g09/l716.exe)
 Dipole        = 0.00000000D+00 0.00000000D+00 4.06040614D-01
 ***** Axes restored to original set *****
 -------------------------------------------------------------------
 Center     Atomic                   Forces (Hartrees/Bohr)
 Number     Number              X              Y              Z
 -------------------------------------------------------------------
      1        7           0.000000000    0.000000000   -0.022096915
      2        8           0.000000000    0.000000000    0.022096915
 -------------------------------------------------------------------
 Cartesian Forces:  Max     0.022096915 RMS     0.012757660
 Leave Link  716 at Mon Jul 23 16:33:03 2012, MaxMem= 1610612736 cpu:       0.1
 (Enter /group/hpc-share/gaussian/2009B/g09/l103.exe)

 GradGradGradGradGradGradGradGradGradGradGradGradGradGradGradGradGradGrad
 Berny optimization.
 Using GEDIIS/GDIIS optimizer.
 Red2BG is reusing G-inverse.
 Internal  Forces:  Max     0.022096915 RMS     0.022096915
 Search for a local minimum.
 Step number   2 out of a maximum of   20
 All quantities printed in internal units (Hartrees-Bohrs-Radians)
 RMS Force = .22097D-01 SwitMx=.10000D-02 MixMth= 1
 Mixed Optimization -- RFO/linear search
 Update second derivatives using D2CorX and points    1    2
 DE= -4.89D-03 DEPred=-4.11D-03 R= 1.19D+00
 SS=  1.41D+00  RLast= 8.79D-02 DXNew= 5.0454D-01 2.6362D-01
 Trust test= 1.19D+00 RLast= 8.79D-02 DXMaxT set to 3.00D-01
 The second derivative matrix:
                          R1
           R1           0.80493
 ITU=  1  0
 Use linear search instead of GDIIS.
     Eigenvalues ---    0.80493
 RFO step:  Lambda= 0.00000000D+00 EMin= 8.04925720D-01
 Quartic linear search produced a step of  0.39363.
 Iteration  1 RMS(Cart)=  0.02445880 RMS(Int)=  0.00000000
 Iteration  2 RMS(Cart)=  0.00000000 RMS(Int)=  0.00000000
 ClnCor:  largest displacement from symmetrization is 0.00D+00 for atom     0.
 Variable       Old X    -DE/DX   Delta X   Delta X   Delta X     New X
                                 (Linear)    (Quad)   (Total)
    R1        2.35555   0.02210   0.03459   0.00000   0.03459   2.39014
         Item               Value     Threshold  Converged?
 Maximum Force            0.022097     0.000450     NO 
 RMS     Force            0.022097     0.000300     NO 
 Maximum Displacement     0.017295     0.001800     NO 
 RMS     Displacement     0.024459     0.001200     NO 
 Predicted change in Energy=-2.827985D-04
 GradGradGradGradGradGradGradGradGradGradGradGradGradGradGradGradGradGrad

 Leave Link  103 at Mon Jul 23 16:33:03 2012, MaxMem= 1610612736 cpu:       0.3
 (Enter /group/hpc-share/gaussian/2009B/g09/l202.exe)
                          Input orientation:                          
 ---------------------------------------------------------------------
 Center     Atomic      Atomic             Coordinates (Angstroms)
 Number     Number       Type             X           Y           Z
 ---------------------------------------------------------------------
      1          7           0        0.000000    0.000000   -0.032402
      2          8           0        0.000000    0.000000    1.232402
 ---------------------------------------------------------------------
 Stoichiometry    NO(1-)
 Framework group  C*V[C*(NO)]
 Deg. of freedom     1
 Full point group                 C*V     NOp   4
 Largest Abelian subgroup         C2V     NOp   4
 Largest concise Abelian subgroup C1      NOp   1
                         Standard orientation:                         
 ---------------------------------------------------------------------
 Center     Atomic      Atomic             Coordinates (Angstroms)
 Number     Number       Type             X           Y           Z
 ---------------------------------------------------------------------
      1          7           0        0.000000    0.000000   -0.674563
      2          8           0        0.000000    0.000000    0.590242
 ---------------------------------------------------------------------
 Rotational constants (GHZ):      0.0000000     42.3113495     42.3113495
 Leave Link  202 at Mon Jul 23 16:33:03 2012, MaxMem= 1610612736 cpu:       0.0
 (Enter /group/hpc-share/gaussian/2009B/g09/l301.exe)
 Standard basis: 6-311G(2d,d,p) (5D, 7F)
 Ernie: Thresh=  0.10000D-02 Tol=  0.10000D-05 Strict=F.
 There are    18 symmetry adapted basis functions of A1  symmetry.
 There are     2 symmetry adapted basis functions of A2  symmetry.
 There are     8 symmetry adapted basis functions of B1  symmetry.
 There are     8 symmetry adapted basis functions of B2  symmetry.
 Integral buffers will be    131072 words long.
 Raffenetti 2 integral format.
 Two-electron integral symmetry is turned on.
    36 basis functions,    64 primitive gaussians,    38 cartesian basis functions
     8 alpha electrons        8 beta electrons
       nuclear repulsion energy        23.4296383828 Hartrees.
 IExCor=  402 DFT=T Ex+Corr=B3LYP ExCW=0 ScaHFX=  0.200000
 ScaDFX=  0.800000  0.720000  1.000000  0.810000 ScalE2=  1.000000  1.000000
 IRadAn=      0 IRanWt=     -1 IRanGd=            0 ICorTp=0
 NAtoms=    2 NActive=    2 NUniq=    2 SFac= 1.00D+00 NAtFMM=   50 NAOKFM=F Big=F
 ------------------------------------------------------------------------------
 Polarizable Continuum Model (PCM)
 =================================
 Model                : PCM.
 Atomic radii         : UFF (Universal Force Field).
 Polarization charges : Total charges.
 Charge compensation  : None.
 Solution method      : Matrix inversion.
 Cavity type          : Scaled VdW (van der Waals Surface) (Alpha=1.100).
 Cavity algorithm     : GePol (No added spheres)
                        Default sphere list used, NSphG=    2.
                        Lebedev-Laikov grids with approx.  5.0 points / Ang**2.
                        Smoothing algorithm: Karplus/York (Gamma=1.0000).
                        Polarization charges: spherical gaussians, with
                                              point-specific exponents (IZeta= 3).
                        Self-potential: point-specific (ISelfS= 7).
                        Self-field    : sphere-specific E.n sum rule (ISelfD= 2).
 1st derivatives      : Analytical E(r).r(x)/FMM algorithm (CHGder, D1EAlg=3).
                        Cavity 1st derivative terms included.
 Solvent              : Water, Eps=  78.355300 Eps(inf)=   1.777849
 ------------------------------------------------------------------------------
 Spheres list:
 ISph  on   Nord    Re0     Alpha      Xe            Ye            Ze
    1   N      1    1.830   1.100      0.000000      0.000000     -0.674563
    2   O      2    1.750   1.100      0.000000      0.000000      0.590242
 ------------------------------------------------------------------------------
 GePol: Number of generator spheres                  =       2
 GePol: Total number of spheres                      =       2
 GePol: Number of exposed spheres                    =       2 (100.00%)
 GePol: Number of points                             =     442
 GePol: Average weight of points                     =       0.15
 GePol: Minimum weight of points                     =   0.43D-11
 GePol: Maximum weight of points                     =    0.18586
 GePol: Number of points with low weight             =      20
 GePol: Fraction of low-weight points (<1% of avg)   =       4.52%
 GePol: Cavity surface area                          =     64.445 Ang**2
 GePol: Cavity volume                                =     46.957 Ang**3
 Leave Link  301 at Mon Jul 23 16:33:03 2012, MaxMem= 1610612736 cpu:       0.4
 (Enter /group/hpc-share/gaussian/2009B/g09/l302.exe)
 NPDir=0 NMtPBC=     1 NCelOv=     1 NCel=       1 NClECP=     1 NCelD=      1
         NCelK=      1 NCelE2=     1 NClLst=     1 CellRange=     0.0.
 One-electron integrals computed using PRISM.
 NBasis=    36 RedAO= T  NBF=    18     2     8     8
 NBsUse=    36 1.00D-06 NBFU=    18     2     8     8
 Precomputing XC quadrature grid using
 IXCGrd= 2 IRadAn=           0 IRanWt=          -1 IRanGd=           0 AccXCQ= 0.00D+00.
 NRdTot=     121 NPtTot=       15216 NUsed=       16102 NTot=       16134
 NSgBfM=    38    38    38    38    38 NAtAll=     2     2.
 Leave Link  302 at Mon Jul 23 16:33:04 2012, MaxMem= 1610612736 cpu:       1.0
 (Enter /group/hpc-share/gaussian/2009B/g09/l303.exe)
 DipDrv:  MaxL=1.
 Leave Link  303 at Mon Jul 23 16:33:04 2012, MaxMem= 1610612736 cpu:       0.2
 (Enter /group/hpc-share/gaussian/2009B/g09/l401.exe)
 Initial guess read from the read-write file.
 B after Tr=     0.000000    0.000000    0.000000
         Rot=    1.000000    0.000000    0.000000    0.000000 Ang=   0.00 deg.
 Guess basis will be translated and rotated to current coordinates.
 Initial guess orbital symmetries:
       Occupied  (SG) (SG) (SG) (SG) (PI) (PI) (SG) (PI)
       Virtual   (PI) (SG) (PI) (PI) (SG) (SG) (SG) (PI) (PI) (SG)
                 (PI) (PI) (DLTA) (DLTA) (SG) (DLTA) (DLTA) (PI)
                 (PI) (SG) (PI) (PI) (SG) (PI) (PI) (SG) (SG) (SG)
 Leave Link  401 at Mon Jul 23 16:33:04 2012, MaxMem= 1610612736 cpu:       0.6
 (Enter /group/hpc-share/gaussian/2009B/g09/l502.exe)
 Closed shell SCF:
 Requested convergence on RMS density matrix=1.00D-08 within 128 cycles.
 Requested convergence on MAX density matrix=1.00D-06.
 Requested convergence on             energy=1.00D-06.
 No special actions if energy rises.
 Using DIIS extrapolation, IDIIS=  1040.
 Integral symmetry usage will be decided dynamically.
        16071 words used for storage of precomputed grid.
 Keep R1 ints in memory in canonical form, NReq=3402857.
 IEnd=       39161 IEndB=       39161 NGot=  1610612736 MDV=  1610316759
 LenX=  1610316759 LenY=  1610314874
 Symmetry not used in FoFDir.
 MinBra= 0 MaxBra= 2 Meth= 1.
 IRaf=       0 NMat=   1 IRICut=       1 DoRegI=T DoRafI=F ISym2E= 0 JSym2E=0.

 Cycle   1  Pass 1  IDiag  1:
 E= -129.972738018810    
 DIIS: error= 2.98D-03 at cycle   1 NSaved=   1.
 NSaved= 1 IEnMin= 1 EnMin= -129.972738018810     IErMin= 1 ErrMin= 2.98D-03
 ErrMax= 2.98D-03 EMaxC= 1.00D-01 BMatC= 2.22D-04 BMatP= 2.22D-04
 IDIUse=3 WtCom= 9.70D-01 WtEn= 2.98D-02
 Coeff-Com:  0.100D+01
 Coeff-En:   0.100D+01
 Coeff:      0.100D+01
 Gap=     0.065 Goal=   None    Shift=    0.000
 GapD=    0.065 DampG=0.500 DampE=1.000 DampFc=0.5000 IDamp=-1.
 Damping current iteration by 5.00D-01
 RMSDP=4.56D-04 MaxDP=4.54D-03              OVMax= 4.71D-03

 Cycle   2  Pass 1  IDiag  1:
 E= -129.972853277143     Delta-E=       -0.000115258332 Rises=F Damp=T
 DIIS: error= 1.42D-03 at cycle   2 NSaved=   2.
 NSaved= 2 IEnMin= 2 EnMin= -129.972853277143     IErMin= 2 ErrMin= 1.42D-03
 ErrMax= 1.42D-03 EMaxC= 1.00D-01 BMatC= 5.58D-05 BMatP= 2.22D-04
 IDIUse=3 WtCom= 9.86D-01 WtEn= 1.42D-02
 Coeff-Com: -0.888D+00 0.189D+01
 Coeff-En:   0.000D+00 0.100D+01
 Coeff:     -0.875D+00 0.188D+01
 Gap=     0.065 Goal=   None    Shift=    0.000
 RMSDP=3.16D-04 MaxDP=3.52D-03 DE=-1.15D-04 OVMax= 1.52D-03

 Cycle   3  Pass 1  IDiag  1:
 E= -129.972971193918     Delta-E=       -0.000117916775 Rises=F Damp=F
 DIIS: error= 5.59D-04 at cycle   3 NSaved=   3.
 NSaved= 3 IEnMin= 3 EnMin= -129.972971193918     IErMin= 3 ErrMin= 5.59D-04
 ErrMax= 5.59D-04 EMaxC= 1.00D-01 BMatC= 7.61D-06 BMatP= 5.58D-05
 IDIUse=3 WtCom= 9.94D-01 WtEn= 5.59D-03
 Coeff-Com: -0.493D+00 0.942D+00 0.551D+00
 Coeff-En:   0.000D+00 0.000D+00 0.100D+01
 Coeff:     -0.490D+00 0.937D+00 0.553D+00
 Gap=     0.065 Goal=   None    Shift=    0.000
 RMSDP=5.22D-05 MaxDP=7.58D-04 DE=-1.18D-04 OVMax= 9.30D-04

 Cycle   4  Pass 1  IDiag  1:
 E= -129.972975770212     Delta-E=       -0.000004576294 Rises=F Damp=F
 DIIS: error= 2.38D-04 at cycle   4 NSaved=   4.
 NSaved= 4 IEnMin= 4 EnMin= -129.972975770212     IErMin= 4 ErrMin= 2.38D-04
 ErrMax= 2.38D-04 EMaxC= 1.00D-01 BMatC= 9.21D-07 BMatP= 7.61D-06
 IDIUse=3 WtCom= 9.98D-01 WtEn= 2.38D-03
 Coeff-Com: -0.297D+00 0.562D+00 0.374D+00 0.361D+00
 Coeff-En:   0.000D+00 0.000D+00 0.000D+00 0.100D+01
 Coeff:     -0.296D+00 0.561D+00 0.373D+00 0.362D+00
 Gap=     0.065 Goal=   None    Shift=    0.000
 RMSDP=1.46D-05 MaxDP=1.74D-04 DE=-4.58D-06 OVMax= 4.42D-04

 Cycle   5  Pass 1  IDiag  1:
 E= -129.972976418287     Delta-E=       -0.000000648075 Rises=F Damp=F
 DIIS: error= 3.52D-05 at cycle   5 NSaved=   5.
 NSaved= 5 IEnMin= 5 EnMin= -129.972976418287     IErMin= 5 ErrMin= 3.52D-05
 ErrMax= 3.52D-05 EMaxC= 1.00D-01 BMatC= 2.68D-08 BMatP= 9.21D-07
 IDIUse=1 WtCom= 1.00D+00 WtEn= 0.00D+00
 Coeff-Com: -0.161D-01 0.290D-01 0.381D-01 0.159D+00 0.790D+00
 Coeff:     -0.161D-01 0.290D-01 0.381D-01 0.159D+00 0.790D+00
 Gap=     0.065 Goal=   None    Shift=    0.000
 RMSDP=3.31D-06 MaxDP=5.75D-05 DE=-6.48D-07 OVMax= 5.41D-05

 Cycle   6  Pass 1  IDiag  1:
 E= -129.972976438780     Delta-E=       -0.000000020493 Rises=F Damp=F
 DIIS: error= 2.04D-06 at cycle   6 NSaved=   6.
 NSaved= 6 IEnMin= 6 EnMin= -129.972976438780     IErMin= 6 ErrMin= 2.04D-06
 ErrMax= 2.04D-06 EMaxC= 1.00D-01 BMatC= 1.31D-10 BMatP= 2.68D-08
 IDIUse=1 WtCom= 1.00D+00 WtEn= 0.00D+00
 Coeff-Com:  0.294D-02-0.581D-02-0.902D-03 0.241D-01 0.155D+00 0.825D+00
 Coeff:      0.294D-02-0.581D-02-0.902D-03 0.241D-01 0.155D+00 0.825D+00
 Gap=     0.065 Goal=   None    Shift=    0.000
 RMSDP=2.27D-07 MaxDP=4.19D-06 DE=-2.05D-08 OVMax= 2.72D-06

 Cycle   7  Pass 1  IDiag  1:
 E= -129.972976438861     Delta-E=       -0.000000000080 Rises=F Damp=F
 DIIS: error= 5.00D-07 at cycle   7 NSaved=   7.
 NSaved= 7 IEnMin= 7 EnMin= -129.972976438861     IErMin= 7 ErrMin= 5.00D-07
 ErrMax= 5.00D-07 EMaxC= 1.00D-01 BMatC= 5.26D-12 BMatP= 1.31D-10
 IDIUse=1 WtCom= 1.00D+00 WtEn= 0.00D+00
 Coeff-Com:  0.331D-03-0.641D-03-0.649D-03 0.177D-02 0.293D-02 0.780D-01
 Coeff-Com:  0.918D+00
 Coeff:      0.331D-03-0.641D-03-0.649D-03 0.177D-02 0.293D-02 0.780D-01
 Coeff:      0.918D+00
 Gap=     0.065 Goal=   None    Shift=    0.000
 RMSDP=4.51D-08 MaxDP=6.53D-07 DE=-8.03D-11 OVMax= 7.78D-07

 Cycle   8  Pass 1  IDiag  1:
 E= -129.972976438865     Delta-E=       -0.000000000004 Rises=F Damp=F
 DIIS: error= 2.45D-08 at cycle   8 NSaved=   8.
 NSaved= 8 IEnMin= 8 EnMin= -129.972976438865     IErMin= 8 ErrMin= 2.45D-08
 ErrMax= 2.45D-08 EMaxC= 1.00D-01 BMatC= 6.71D-15 BMatP= 5.26D-12
 IDIUse=1 WtCom= 1.00D+00 WtEn= 0.00D+00
 Coeff-Com: -0.182D-04 0.371D-04-0.217D-04-0.294D-03-0.187D-02-0.699D-02
 Coeff-Com:  0.368D-01 0.972D+00
 Coeff:     -0.182D-04 0.371D-04-0.217D-04-0.294D-03-0.187D-02-0.699D-02
 Coeff:      0.368D-01 0.972D+00
 Gap=     0.065 Goal=   None    Shift=    0.000
 RMSDP=2.53D-09 MaxDP=3.74D-08 DE=-3.92D-12 OVMax= 7.35D-08

 Error on total polarization charges =  0.00401
 SCF Done:  E(RB3LYP) =  -129.972976439     A.U. after    8 cycles
             Convg  =    0.2527D-08             -V/T =  2.0015
 KE= 1.297778721256D+02 PE=-3.594502732820D+02 EE= 7.626978633477D+01
 Leave Link  502 at Mon Jul 23 16:33:06 2012, MaxMem= 1610612736 cpu:       9.9
 (Enter /group/hpc-share/gaussian/2009B/g09/l701.exe)
 Compute integral first derivatives.
 ... and contract with generalized density number  0.
 D1PCM: PCM CHGder 1st derivatives, ID1Alg=3 FixD1E=F DoIter=F DoCFld=F I1PDM=0.
 GePol: Maximum number of non-zero 1st derivatives   =     261
 Leave Link  701 at Mon Jul 23 16:33:06 2012, MaxMem= 1610612736 cpu:       2.4
 (Enter /group/hpc-share/gaussian/2009B/g09/l702.exe)
 L702 exits ... SP integral derivatives will be done elsewhere.
 Leave Link  702 at Mon Jul 23 16:33:06 2012, MaxMem= 1610612736 cpu:       0.1
 (Enter /group/hpc-share/gaussian/2009B/g09/l703.exe)
 Compute integral first derivatives, UseDBF=F ICtDFT=           0.
 Integral derivatives from FoFDir, PRISM(SPDF).
 Calling FoFJK, ICntrl=      2127 FMM=F ISym2X=1 I1Cent= 0 IOpClX= 0 NMat=1 NMatS=1 NMatT=0.
 FoFCou: FMM=F IPFlag=           0 FMFlag=      100000 FMFlg1=         800
         NFxFlg=           0 DoJE=F BraDBF=F KetDBF=F FulRan=T
         Omega=  0.000000  0.000000  1.000000  0.000000  0.000000 ICntrl=    2127 IOpCl=  0
         NMat0=    1 NMatS0=    1 NMatT0=    0 NMatD0=    1 NMtDS0=    0 NMtDT0=    0
         I1Cent=           0 NGrid=           0.
 Petite list used in FoFCou.
 Leave Link  703 at Mon Jul 23 16:33:06 2012, MaxMem= 1610612736 cpu:       1.1
 (Enter /group/hpc-share/gaussian/2009B/g09/l716.exe)
 Dipole        = 0.00000000D+00 0.00000000D+00 3.86857134D-01
 ***** Axes restored to original set *****
 -------------------------------------------------------------------
 Center     Atomic                   Forces (Hartrees/Bohr)
 Number     Number              X              Y              Z
 -------------------------------------------------------------------
      1        7           0.000000000    0.000000000    0.000198486
      2        8           0.000000000    0.000000000   -0.000198486
 -------------------------------------------------------------------
 Cartesian Forces:  Max     0.000198486 RMS     0.000114596
 Leave Link  716 at Mon Jul 23 16:33:07 2012, MaxMem= 1610612736 cpu:       0.1
 (Enter /group/hpc-share/gaussian/2009B/g09/l103.exe)

 GradGradGradGradGradGradGradGradGradGradGradGradGradGradGradGradGradGrad
 Berny optimization.
 Using GEDIIS/GDIIS optimizer.
 Red2BG is reusing G-inverse.
 Internal  Forces:  Max     0.000198486 RMS     0.000198486
 Search for a local minimum.
 Step number   3 out of a maximum of   20
 All quantities printed in internal units (Hartrees-Bohrs-Radians)
 RMS Force = .19849D-03 SwitMx=.10000D-02 MixMth= 2
 Mixed Optimization -- En-DIIS/RFO-DIIS
 Update second derivatives using D2CorX and points    2    3
 DE= -3.71D-04 DEPred=-2.83D-04 R= 1.31D+00
 SS=  1.41D+00  RLast= 3.46D-02 DXNew= 5.0454D-01 1.0377D-01
 Trust test= 1.31D+00 RLast= 3.46D-02 DXMaxT set to 3.00D-01
 The second derivative matrix:
                          R1
           R1           0.64456
 ITU=  1  1
 Use linear search instead of GDIIS.
     Eigenvalues ---    0.64456
 RFO step:  Lambda= 0.00000000D+00 EMin= 6.44562643D-01
 Quartic linear search produced a step of -0.00948.
 Iteration  1 RMS(Cart)=  0.00023195 RMS(Int)=  0.00000000
 Iteration  2 RMS(Cart)=  0.00000000 RMS(Int)=  0.00000000
 ClnCor:  largest displacement from symmetrization is 0.00D+00 for atom     0.
 Variable       Old X    -DE/DX   Delta X   Delta X   Delta X     New X
                                 (Linear)    (Quad)   (Total)
    R1        2.39014  -0.00020  -0.00033   0.00000  -0.00033   2.38981
         Item               Value     Threshold  Converged?
 Maximum Force            0.000198     0.000450     YES
 RMS     Force            0.000198     0.000300     YES
 Maximum Displacement     0.000164     0.001800     YES
 RMS     Displacement     0.000232     0.001200     YES
 Predicted change in Energy=-3.043070D-08
 Optimization completed.
    -- Stationary point found.
                           ----------------------------
                           !   Optimized Parameters   !
                           ! (Angstroms and Degrees)  !
 --------------------------                            --------------------------
 ! Name  Definition              Value          Derivative Info.                !
 --------------------------------------------------------------------------------
 ! R1    R(1,2)                  1.2648         -DE/DX =   -0.0002              !
 --------------------------------------------------------------------------------
 GradGradGradGradGradGradGradGradGradGradGradGradGradGradGradGradGradGrad

 Largest change from initial coordinates is atom    1       0.030 Angstoms.
 Leave Link  103 at Mon Jul 23 16:33:07 2012, MaxMem= 1610612736 cpu:       0.2
 (Enter /group/hpc-share/gaussian/2009B/g09/l202.exe)
                          Input orientation:                          
 ---------------------------------------------------------------------
 Center     Atomic      Atomic             Coordinates (Angstroms)
 Number     Number       Type             X           Y           Z
 ---------------------------------------------------------------------
      1          7           0        0.000000    0.000000   -0.032402
      2          8           0        0.000000    0.000000    1.232402
 ---------------------------------------------------------------------
 Stoichiometry    NO(1-)
 Framework group  C*V[C*(NO)]
 Deg. of freedom     1
 Full point group                 C*V     NOp   4
 Largest Abelian subgroup         C2V     NOp   4
 Largest concise Abelian subgroup C1      NOp   1
                         Standard orientation:                         
 ---------------------------------------------------------------------
 Center     Atomic      Atomic             Coordinates (Angstroms)
 Number     Number       Type             X           Y           Z
 ---------------------------------------------------------------------
      1          7           0        0.000000    0.000000   -0.674563
      2          8           0        0.000000    0.000000    0.590242
 ---------------------------------------------------------------------
 Rotational constants (GHZ):      0.0000000     42.3113495     42.3113495
 Leave Link  202 at Mon Jul 23 16:33:07 2012, MaxMem= 1610612736 cpu:       0.0
 (Enter /group/hpc-share/gaussian/2009B/g09/l601.exe)
 Copying SCF densities to generalized density rwf, IOpCl= 0 IROHF=0.

 **********************************************************************

            Population analysis using the SCF density.

 **********************************************************************

 Orbital symmetries:
       Occupied  (SG) (SG) (SG) (SG) (PI) (PI) (SG) (PI)
       Virtual   (PI) (SG) (PI) (PI) (SG) (SG) (SG) (PI) (PI) (SG)
                 (PI) (PI) (DLTA) (DLTA) (SG) (DLTA) (DLTA) (PI)
                 (PI) (SG) (PI) (PI) (SG) (PI) (PI) (SG) (SG) (SG)
 Unable to determine electronic state:  partially filled degenerate orbitals.
 Alpha  occ. eigenvalues --  -19.04887 -14.23226  -0.97968  -0.52486  -0.30948
 Alpha  occ. eigenvalues --   -0.30342  -0.30237  -0.04505
 Alpha virt. eigenvalues --    0.02039   0.35014   0.66273   0.67113   0.68219
 Alpha virt. eigenvalues --    0.74274   0.82882   0.87400   0.88239   1.34715
 Alpha virt. eigenvalues --    1.95895   1.98663   2.05128   2.05491   2.52889
 Alpha virt. eigenvalues --    2.91640   2.91758   3.24865   3.27184   3.48154
 Alpha virt. eigenvalues --    3.80007   3.82306   4.28026   4.87696   4.89578
 Alpha virt. eigenvalues --    5.62679  35.30428  49.84842
          Condensed to atoms (all electrons):
              1          2
     1  N    7.504988   0.028358
     2  O    0.028358   8.438296
 Mulliken atomic charges:
              1
     1  N   -0.533346
     2  O   -0.466654
 Sum of Mulliken atomic charges =  -1.00000
 Mulliken charges with hydrogens summed into heavy atoms:
              1
     1  N   -0.533346
     2  O   -0.466654
 Sum of Mulliken charges with hydrogens summed into heavy atoms =  -1.00000
 Electronic spatial extent (au):  <R**2>=             52.2091
 Charge=             -1.0000 electrons
 Dipole moment (field-independent basis, Debye):
    X=              0.0000    Y=              0.0000    Z=              0.9833  Tot=              0.9833
 Quadrupole moment (field-independent basis, Debye-Ang):
   XX=            -11.3057   YY=            -14.0207   ZZ=            -16.2104
   XY=              0.0000   XZ=              0.0000   YZ=              0.0000
 Traceless Quadrupole moment (field-independent basis, Debye-Ang):
   XX=              2.5399   YY=             -0.1751   ZZ=             -2.3648
   XY=              0.0000   XZ=              0.0000   YZ=              0.0000
 Octapole moment (field-independent basis, Debye-Ang**2):
  XXX=              0.0000  YYY=              0.0000  ZZZ=              4.6712  XYY=              0.0000
  XXY=              0.0000  XXZ=              0.8606  XZZ=              0.0000  YZZ=              0.0000
  YYZ=              2.1439  XYZ=              0.0000
 Hexadecapole moment (field-independent basis, Debye-Ang**3):
 XXXX=             -8.9542 YYYY=            -12.8875 ZZZZ=            -44.0605 XXXY=              0.0000
 XXXZ=              0.0000 YYYX=              0.0000 YYYZ=              0.0000 ZZZX=              0.0000
 ZZZY=              0.0000 XXYY=             -3.6403 XXZZ=             -8.1467 YYZZ=            -10.6787
 XXYZ=              0.0000 YYXZ=              0.0000 ZZXY=              0.0000
 N-N= 2.342963838279D+01 E-N=-3.594502734495D+02  KE= 1.297778721256D+02
 Symmetry A1   KE= 1.174744632199D+02
 Symmetry A2   KE= 1.357746726511D-35
 Symmetry B1   KE= 3.861042564551D+00
 Symmetry B2   KE= 8.442366341133D+00
 No NMR shielding tensors so no spin-rotation constants.
 Leave Link  601 at Mon Jul 23 16:33:07 2012, MaxMem= 1610612736 cpu:       0.9
 (Enter /group/hpc-share/gaussian/2009B/g09/l9999.exe)
 1\1\GINC-HPC-CN59\FOpt\RB3LYP\6-311G(2d,d,p)\N1O1(1-)\TALIPOVM\23-Jul-
 2012\0\\#p cbs-qb3 scrf(pcm,solvent=water)\\\-1,1\N,0.,0.,-0.032402498
 \O,0.,0.,1.232402498\\Version=EM64L-G09RevB.01\HF=-129.9729764\RMSD=2.
 527e-09\RMSF=1.146e-04\Dipole=0.,0.,0.3868571\Quadrupole=1.888365,-0.1
 301854,-1.7581796,0.,0.,0.\PG=C*V [C*(N1O1)]\\@


 LIFE IS A CONTINUAL STRUGGLE AGAINST THE TENDENCY TO PRODUCE ENTROPY.
 Leave Link 9999 at Mon Jul 23 16:33:08 2012, MaxMem= 1610612736 cpu:       0.2
 Job cpu time:  0 days  0 hours  1 minutes 35.9 seconds.
 File lengths (MBytes):  RWF=      9 Int=      0 D2E=      0 Chk=      1 Scr=      1
 Normal termination of Gaussian 09 at Mon Jul 23 16:33:08 2012.
 (Enter /group/hpc-share/gaussian/2009B/g09/l1.exe)
 Link1:  Proceeding to internal job step number  2.
 ---------------------------------------------------------
 #P Geom=AllCheck Guess=TCheck SCRF=Check B3LYP/CBSB7 Freq
 ---------------------------------------------------------
 1/10=4,29=7,30=1,38=1,40=1/1,3;
 2/12=2,40=1/2;
 3/5=4,6=6,7=700,11=2,14=-4,16=1,25=1,30=1,70=2,71=2,72=1,74=-5,116=-2/1,2,3;
 4/5=101/1;
 5/5=2,53=1,98=1/2;
 8/6=4,10=90,11=11/1;
 11/6=1,8=1,9=11,15=111,16=1/1,2,10;
 10/6=1/2;
 6/7=2,8=2,9=2,10=2,18=1,28=1/1;
 7/8=1,10=1,25=1/1,2,3,16;
 1/10=4,30=1/3;
 99//99;
 Leave Link    1 at Mon Jul 23 16:33:08 2012, MaxMem= 1610612736 cpu:       0.2
 (Enter /group/hpc-share/gaussian/2009B/g09/l101.exe)

 

 Redundant internal coordinates taken from checkpoint file:
 NO.chk
 Charge = -1 Multiplicity = 1
 N,0,0.,0.,-0.032402498
 O,0,0.,0.,1.232402498
 Recover connectivity data from disk.
                    Isotopes and Nuclear Properties:
 (Nuclear quadrupole moments (NQMom) in fm**2, nuclear magnetic moments (NMagM)
  in nuclear magnetons)

  Atom         1           2
 IAtWgt=          14          16
 AtmWgt=  14.0030740  15.9949146
 NucSpn=           2           0
 AtZEff=  -4.5500000  -5.6000000
 NQMom=    2.0440000   0.0000000
 NMagM=    0.4037610   0.0000000
 Leave Link  101 at Mon Jul 23 16:33:08 2012, MaxMem= 1610612736 cpu:       0.5
 (Enter /group/hpc-share/gaussian/2009B/g09/l103.exe)

 GradGradGradGradGradGradGradGradGradGradGradGradGradGradGradGradGradGrad
 Berny optimization.
 Initialization pass.
                           ----------------------------
                           !    Initial Parameters    !
                           ! (Angstroms and Degrees)  !
 --------------------------                            --------------------------
 ! Name  Definition              Value          Derivative Info.                !
 --------------------------------------------------------------------------------
 ! R1    R(1,2)                  1.2648         calculate D2E/DX2 analytically  !
 --------------------------------------------------------------------------------
 Trust Radius=3.00D-01 FncErr=1.00D-07 GrdErr=1.00D-07
 Number of steps in this run=      2 maximum allowed number of steps=      2.
 GradGradGradGradGradGradGradGradGradGradGradGradGradGradGradGradGradGrad

 Leave Link  103 at Mon Jul 23 16:33:08 2012, MaxMem= 1610612736 cpu:       0.0
 (Enter /group/hpc-share/gaussian/2009B/g09/l202.exe)
                          Input orientation:                          
 ---------------------------------------------------------------------
 Center     Atomic      Atomic             Coordinates (Angstroms)
 Number     Number       Type             X           Y           Z
 ---------------------------------------------------------------------
      1          7           0        0.000000    0.000000   -0.032402
      2          8           0        0.000000    0.000000    1.232402
 ---------------------------------------------------------------------
 Stoichiometry    NO(1-)
 Framework group  C*V[C*(NO)]
 Deg. of freedom     1
 Full point group                 C*V     NOp   4
 Largest Abelian subgroup         C2V     NOp   4
 Largest concise Abelian subgroup C1      NOp   1
                         Standard orientation:                         
 ---------------------------------------------------------------------
 Center     Atomic      Atomic             Coordinates (Angstroms)
 Number     Number       Type             X           Y           Z
 ---------------------------------------------------------------------
      1          7           0        0.000000    0.000000   -0.674563
      2          8           0        0.000000    0.000000    0.590242
 ---------------------------------------------------------------------
 Rotational constants (GHZ):      0.0000000     42.3113495     42.3113495
 Leave Link  202 at Mon Jul 23 16:33:09 2012, MaxMem= 1610612736 cpu:       0.0
 (Enter /group/hpc-share/gaussian/2009B/g09/l301.exe)
 Standard basis: 6-311G(2d,d,p) (5D, 7F)
 Ernie: Thresh=  0.10000D-02 Tol=  0.10000D-05 Strict=F.
 There are    18 symmetry adapted basis functions of A1  symmetry.
 There are     2 symmetry adapted basis functions of A2  symmetry.
 There are     8 symmetry adapted basis functions of B1  symmetry.
 There are     8 symmetry adapted basis functions of B2  symmetry.
 Integral buffers will be    131072 words long.
 Raffenetti 2 integral format.
 Two-electron integral symmetry is turned on.
    36 basis functions,    64 primitive gaussians,    38 cartesian basis functions
     8 alpha electrons        8 beta electrons
       nuclear repulsion energy        23.4296383828 Hartrees.
 IExCor=  402 DFT=T Ex+Corr=B3LYP ExCW=0 ScaHFX=  0.200000
 ScaDFX=  0.800000  0.720000  1.000000  0.810000 ScalE2=  1.000000  1.000000
 IRadAn=      0 IRanWt=     -1 IRanGd=            0 ICorTp=0
 NAtoms=    2 NActive=    2 NUniq=    2 SFac= 1.00D+00 NAtFMM=   50 NAOKFM=F Big=F
 ------------------------------------------------------------------------------
 Polarizable Continuum Model (PCM)
 =================================
 Model                : PCM.
 Atomic radii         : UFF (Universal Force Field).
 Polarization charges : Total charges.
 Charge compensation  : None.
 Solution method      : Matrix inversion.
 Cavity type          : Scaled VdW (van der Waals Surface) (Alpha=1.100).
 Cavity algorithm     : GePol (No added spheres)
                        Default sphere list used, NSphG=    2.
                        Lebedev-Laikov grids with approx.  5.0 points / Ang**2.
                        Smoothing algorithm: Karplus/York (Gamma=1.0000).
                        Polarization charges: spherical gaussians, with
                                              point-specific exponents (IZeta= 3).
                        Self-potential: point-specific (ISelfS= 7).
                        Self-field    : sphere-specific E.n sum rule (ISelfD= 2).
 1st derivatives      : Analytical E(r).r(x)/FMM algorithm (CHGder, D1EAlg=3).
                        Cavity 1st derivative terms included.
 2nd derivatives      : Analytical E(r).r(xy)/FMM algorithm (CHGder, D2EAlg=3).
                        Cavity 2nd derivative terms included.
 Solvent              : Water, Eps=  78.355300 Eps(inf)=   1.777849
 ------------------------------------------------------------------------------
 Spheres list:
 ISph  on   Nord    Re0     Alpha      Xe            Ye            Ze
    1   N      1    1.830   1.100      0.000000      0.000000     -0.674563
    2   O      2    1.750   1.100      0.000000      0.000000      0.590242
 ------------------------------------------------------------------------------
 GePol: Number of generator spheres                  =       2
 GePol: Total number of spheres                      =       2
 GePol: Number of exposed spheres                    =       2 (100.00%)
 GePol: Number of points                             =     442
 GePol: Average weight of points                     =       0.15
 GePol: Minimum weight of points                     =   0.43D-11
 GePol: Maximum weight of points                     =    0.18586
 GePol: Number of points with low weight             =      20
 GePol: Fraction of low-weight points (<1% of avg)   =       4.52%
 GePol: Cavity surface area                          =     64.445 Ang**2
 GePol: Cavity volume                                =     46.957 Ang**3
 Leave Link  301 at Mon Jul 23 16:33:09 2012, MaxMem= 1610612736 cpu:       0.4
 (Enter /group/hpc-share/gaussian/2009B/g09/l302.exe)
 NPDir=0 NMtPBC=     1 NCelOv=     1 NCel=       1 NClECP=     1 NCelD=      1
         NCelK=      1 NCelE2=     1 NClLst=     1 CellRange=     0.0.
 One-electron integrals computed using PRISM.
 NBasis=    36 RedAO= T  NBF=    18     2     8     8
 NBsUse=    36 1.00D-06 NBFU=    18     2     8     8
 Precomputing XC quadrature grid using
 IXCGrd= 2 IRadAn=           0 IRanWt=          -1 IRanGd=           0 AccXCQ= 0.00D+00.
 NRdTot=     121 NPtTot=       15216 NUsed=       16102 NTot=       16134
 NSgBfM=    38    38    38    38    38 NAtAll=     2     2.
 Leave Link  302 at Mon Jul 23 16:33:09 2012, MaxMem= 1610612736 cpu:       0.9
 (Enter /group/hpc-share/gaussian/2009B/g09/l303.exe)
 DipDrv:  MaxL=1.
 Leave Link  303 at Mon Jul 23 16:33:09 2012, MaxMem= 1610612736 cpu:       0.1
 (Enter /group/hpc-share/gaussian/2009B/g09/l401.exe)
 Initial guess read from the checkpoint file:  NO.chk
 B after Tr=     0.000000    0.000000    0.000000
         Rot=    1.000000    0.000000    0.000000    0.000000 Ang=   0.00 deg.
 Guess basis will be translated and rotated to current coordinates.
 Initial guess orbital symmetries:
       Occupied  (SG) (SG) (SG) (SG) (PI) (PI) (SG) (PI)
       Virtual   (PI) (SG) (PI) (PI) (SG) (SG) (SG) (PI) (PI) (SG)
                 (PI) (PI) (DLTA) (DLTA) (SG) (DLTA) (DLTA) (PI)
                 (PI) (SG) (PI) (PI) (SG) (PI) (PI) (SG) (SG) (SG)
 Leave Link  401 at Mon Jul 23 16:33:09 2012, MaxMem= 1610612736 cpu:       0.5
 (Enter /group/hpc-share/gaussian/2009B/g09/l502.exe)
 Closed shell SCF:
 Requested convergence on RMS density matrix=1.00D-08 within 128 cycles.
 Requested convergence on MAX density matrix=1.00D-06.
 Requested convergence on             energy=1.00D-06.
 No special actions if energy rises.
 Using DIIS extrapolation, IDIIS=  1040.
 Integral symmetry usage will be decided dynamically.
        16071 words used for storage of precomputed grid.
 Keep R1 ints in memory in canonical form, NReq=3402857.
 IEnd=       39161 IEndB=       39161 NGot=  1610612736 MDV=  1610316759
 LenX=  1610316759 LenY=  1610314874
 Symmetry not used in FoFDir.
 MinBra= 0 MaxBra= 2 Meth= 1.
 IRaf=       0 NMat=   1 IRICut=       1 DoRegI=T DoRafI=F ISym2E= 0 JSym2E=0.

 Cycle   1  Pass 1  IDiag  1:
 E= -129.972976438864    
 DIIS: error= 2.81D-09 at cycle   1 NSaved=   1.
 NSaved= 1 IEnMin= 1 EnMin= -129.972976438864     IErMin= 1 ErrMin= 2.81D-09
 ErrMax= 2.81D-09 EMaxC= 1.00D-01 BMatC= 1.85D-16 BMatP= 1.85D-16
 IDIUse=1 WtCom= 1.00D+00 WtEn= 0.00D+00
 Coeff-Com:  0.100D+01
 Coeff:      0.100D+01
 Gap=     0.065 Goal=   None    Shift=    0.000
 RMSDP=6.80D-10 MaxDP=9.96D-09              OVMax= 9.44D-09

 Error on total polarization charges =  0.00401
 SCF Done:  E(RB3LYP) =  -129.972976439     A.U. after    1 cycles
             Convg  =    0.6804D-09             -V/T =  2.0015
 KE= 1.297778720939D+02 PE=-3.594502734178D+02 EE= 7.626978650225D+01
 Leave Link  502 at Mon Jul 23 16:33:10 2012, MaxMem= 1610612736 cpu:       2.8
 (Enter /group/hpc-share/gaussian/2009B/g09/l801.exe)
 Range of M.O.s used for correlation:     1    36
 NBasis=    36 NAE=     8 NBE=     8 NFC=     0 NFV=     0
 NROrb=     36 NOA=     8 NOB=     8 NVA=    28 NVB=    28

 **** Warning!!: The smallest alpha delta epsilon is  0.65448246D-01

 Leave Link  801 at Mon Jul 23 16:33:10 2012, MaxMem= 1610612736 cpu:       0.1
 (Enter /group/hpc-share/gaussian/2009B/g09/l1101.exe)
 Using compressed storage, NAtomX=     2.
 Will process   3 centers per pass.
 Leave Link 1101 at Mon Jul 23 16:33:13 2012, MaxMem= 1610612736 cpu:       1.6
 (Enter /group/hpc-share/gaussian/2009B/g09/l1102.exe)
 Symmetrizing basis deriv contribution to polar:
 IMax=3 JMax=2 DiffMx= 0.00D+00
 Leave Link 1102 at Mon Jul 23 16:33:14 2012, MaxMem= 1610612736 cpu:       2.7
 (Enter /group/hpc-share/gaussian/2009B/g09/l1110.exe)
 Forming Gx(P) for the SCF density, NAtomX=     2.
 Integral derivatives from FoFDir/FoFCou, PRISM(SPDF).
 Do as many integral derivatives as possible in FoFDir.
 G2DrvN: MDV=    1610612616.
 G2DrvN: will do     3 centers at a time, making    1 passes doing MaxLOS=2.
 Calling FoFCou, ICntrl=  3107 FMM=F I1Cent=   0 AccDes= 0.00D+00.
 FoFCou: FMM=F IPFlag=           0 FMFlag=      100000 FMFlg1=           0
         NFxFlg=           0 DoJE=F BraDBF=F KetDBF=F FulRan=T
         Omega=  0.000000  0.000000  1.000000  0.000000  0.000000 ICntrl=    3107 IOpCl=  0
         NMat0=    1 NMatS0=    1 NMatT0=    0 NMatD0=    1 NMtDS0=    0 NMtDT0=    0
         I1Cent=           0 NGrid=           0.
 Petite list used in FoFCou.
 FoFDir/FoFCou used for L=0 through L=2.
 G2PCM: DoFxE=T DoFxN=T DoGrad=T DoPD/DQ/DG=FFF NFrqRd=   0 IEInf=0 DoCFld=F IF1Alg=4.
 GePol: Maximum number of non-zero 1st derivatives   =     261
 End of G2Drv Frequency-dependent properties file   721 does not exist.
 End of G2Drv Frequency-dependent properties file   722 does not exist.
 Leave Link 1110 at Mon Jul 23 16:33:18 2012, MaxMem= 1610612736 cpu:      15.9
 (Enter /group/hpc-share/gaussian/2009B/g09/l1002.exe)
 Minotr:  Closed shell wavefunction.
          IDoAtm=11
 NEqPCM:  Using equilibrium solvation (IEInf=0, Eps=  78.3553, EpsInf=   1.7778)
          Direct CPHF calculation.
          Differentiating once with respect to electric field.
[...]
 Spheres list:
 ISph  on   Nord    Re0     Alpha      Xe            Ye            Ze
    1   N      1    1.830   1.100      0.000000      0.000000     -0.674563
    2   O      2    1.750   1.100      0.000000      0.000000      0.590242
 ------------------------------------------------------------------------------
 GePol: Number of generator spheres                  =       2
 GePol: Total number of spheres                      =       2
 GePol: Number of exposed spheres                    =       2 (100.00%)
 GePol: Number of points                             =     442
 GePol: Average weight of points                     =       0.15
 GePol: Minimum weight of points                     =   0.43D-11
 GePol: Maximum weight of points                     =    0.18586
 GePol: Number of points with low weight             =      20
 GePol: Fraction of low-weight points (<1% of avg)   =       4.52%
 GePol: Cavity surface area                          =     64.445 Ang**2
 GePol: Cavity volume                                =     46.957 Ang**3
 Leave Link  301 at Mon Jul 23 16:33:45 2012, MaxMem= 1610612736 cpu:       0.4
 (Enter /group/hpc-share/gaussian/2009B/g09/l302.exe)
 NPDir=0 NMtPBC=     1 NCelOv=     1 NCel=       1 NClECP=     1 NCelD=      1
         NCelK=      1 NCelE2=     1 NClLst=     1 CellRange=     0.0.
 One-electron integrals computed using PRISM.
 NBasis=    68 RedAO= T  NBF=    30     6    16    16
 NBsUse=    68 1.00D-06 NBFU=    30     6    16    16
 Leave Link  302 at Mon Jul 23 16:33:45 2012, MaxMem= 1610612736 cpu:       1.2
 (Enter /group/hpc-share/gaussian/2009B/g09/l303.exe)
 DipDrv:  MaxL=1.
 Leave Link  303 at Mon Jul 23 16:33:45 2012, MaxMem= 1610612736 cpu:       0.4
 (Enter /group/hpc-share/gaussian/2009B/g09/l401.exe)
 Initial guess read from the checkpoint file:  NO.chk
 B after Tr=     0.000000    0.000000    0.000000
         Rot=    1.000000    0.000000    0.000000    0.000000 Ang=   0.00 deg.
 Guess basis will be translated and rotated to current coordinates.
 Initial guess orbital symmetries:
       Occupied  (SG) (SG) (SG) (SG) (?A) (SG) (?A) (?A)
       Virtual   (SG) (SG) (SG) (SG) (SG) (DLTA) (SG) (SG) (DLTA)
                 (SG) (DLTA) (SG) (SG) (SG) (DLTA) (SG) (SG) (DLTA)
                 (SG) (DLTA) (SG) (SG) (SG) (SG) (SG) (DLTA) (DLTA)
                 (DLTA) (DLTA) (DLTA) (DLTA) (?A) (?A) (?A) (?A)
                 (?A) (?A) (PHI) (PHI) (?A) (?A) (?A) (?A) (?A)
                 (?A) (?A) (?A) (?A) (?A) (?A) (?A) (?A) (PHI)
                 (PHI) (?A) (?A) (?A) (?A) (?A) (?A)
 Leave Link  401 at Mon Jul 23 16:33:46 2012, MaxMem= 1610612736 cpu:       1.2
 (Enter /group/hpc-share/gaussian/2009B/g09/l502.exe)
 Closed shell SCF:
 Requested convergence on RMS density matrix=1.00D-08 within 128 cycles.
 Requested convergence on MAX density matrix=1.00D-06.
 Requested convergence on             energy=1.00D-06.
 No special actions if energy rises.
 Using DIIS extrapolation, IDIIS=  1040.
 Integral symmetry usage will be decided dynamically.
 Keep R1 ints in memory in canonical form, NReq=8976884.
 IEnd=       37626 IEndB=       37626 NGot=  1610612736 MDV=  1605850064
 LenX=  1605850064 LenY=  1605843539
 Symmetry not used in FoFDir.
 MinBra= 0 MaxBra= 3 Meth= 1.
 IRaf=       0 NMat=   1 IRICut=       1 DoRegI=T DoRafI=F ISym2E= 0 JSym2E=0.

 Cycle   1  Pass 1  IDiag  1:
 E= -129.310557575819    
 DIIS: error= 2.12D-02 at cycle   1 NSaved=   1.
 NSaved= 1 IEnMin= 1 EnMin= -129.310557575819     IErMin= 1 ErrMin= 2.12D-02
 ErrMax= 2.12D-02 EMaxC= 1.00D-01 BMatC= 2.14D-02 BMatP= 2.14D-02
 IDIUse=3 WtCom= 7.88D-01 WtEn= 2.12D-01
 Coeff-Com:  0.100D+01
 Coeff-En:   0.100D+01
 Coeff:      0.100D+01
 Gap=     0.845 Goal=   None    Shift=    0.000
 GapD=    0.845 DampG=2.000 DampE=0.500 DampFc=1.0000 IDamp=-1.
 RMSDP=1.02D-03 MaxDP=1.82D-02              OVMax= 2.18D-02

 Cycle   2  Pass 1  IDiag  1:
 E= -129.317749100244     Delta-E=       -0.007191524425 Rises=F Damp=F
 DIIS: error= 2.09D-03 at cycle   2 NSaved=   2.
 NSaved= 2 IEnMin= 2 EnMin= -129.317749100244     IErMin= 2 ErrMin= 2.09D-03
 ErrMax= 2.09D-03 EMaxC= 1.00D-01 BMatC= 1.73D-04 BMatP= 2.14D-02
 IDIUse=3 WtCom= 9.79D-01 WtEn= 2.09D-02
 Coeff-Com: -0.545D-01 0.105D+01
 Coeff-En:   0.000D+00 0.100D+01
 Coeff:     -0.534D-01 0.105D+01
 Gap=     0.375 Goal=   None    Shift=    0.000
 RMSDP=1.85D-04 MaxDP=2.36D-03 DE=-7.19D-03 OVMax= 3.54D-03

 Cycle   3  Pass 1  IDiag  1:
 E= -129.317876142569     Delta-E=       -0.000127042324 Rises=F Damp=F
 DIIS: error= 6.85D-04 at cycle   3 NSaved=   3.
 NSaved= 3 IEnMin= 3 EnMin= -129.317876142569     IErMin= 3 ErrMin= 6.85D-04
 ErrMax= 6.85D-04 EMaxC= 1.00D-01 BMatC= 1.84D-05 BMatP= 1.73D-04
 IDIUse=3 WtCom= 9.93D-01 WtEn= 6.85D-03
 Coeff-Com: -0.178D-01 0.227D+00 0.791D+00
 Coeff-En:   0.000D+00 0.000D+00 0.100D+01
 Coeff:     -0.177D-01 0.225D+00 0.792D+00
 Gap=     0.377 Goal=   None    Shift=    0.000
 RMSDP=5.24D-05 MaxDP=1.33D-03 DE=-1.27D-04 OVMax= 1.26D-03

 Cycle   4  Pass 1  IDiag  1:
 E= -129.317890228369     Delta-E=       -0.000014085800 Rises=F Damp=F
 DIIS: error= 1.45D-04 at cycle   4 NSaved=   4.
 NSaved= 4 IEnMin= 4 EnMin= -129.317890228369     IErMin= 4 ErrMin= 1.45D-04
 ErrMax= 1.45D-04 EMaxC= 1.00D-01 BMatC= 8.51D-07 BMatP= 1.84D-05
 IDIUse=3 WtCom= 9.99D-01 WtEn= 1.45D-03
 Coeff-Com:  0.461D-02-0.813D-01-0.211D-01 0.110D+01
 Coeff-En:   0.000D+00 0.000D+00 0.000D+00 0.100D+01
 Coeff:      0.460D-02-0.812D-01-0.210D-01 0.110D+01
 Gap=     0.377 Goal=   None    Shift=    0.000
 RMSDP=1.97D-05 MaxDP=3.25D-04 DE=-1.41D-05 OVMax= 4.35D-04

 Cycle   5  Pass 1  IDiag  1:
 E= -129.317891312736     Delta-E=       -0.000001084367 Rises=F Damp=F
 DIIS: error= 6.82D-05 at cycle   5 NSaved=   5.
 NSaved= 5 IEnMin= 5 EnMin= -129.317891312736     IErMin= 5 ErrMin= 6.82D-05
 ErrMax= 6.82D-05 EMaxC= 1.00D-01 BMatC= 6.11D-08 BMatP= 8.51D-07
 IDIUse=1 WtCom= 1.00D+00 WtEn= 0.00D+00
 Coeff-Com:  0.118D-02-0.191D-01-0.253D-01 0.178D+00 0.865D+00
 Coeff:      0.118D-02-0.191D-01-0.253D-01 0.178D+00 0.865D+00
 Gap=     0.377 Goal=   None    Shift=    0.000
 RMSDP=3.78D-06 MaxDP=7.10D-05 DE=-1.08D-06 OVMax= 1.72D-04

 Cycle   6  Pass 1  IDiag  1:
 E= -129.317891377949     Delta-E=       -0.000000065213 Rises=F Damp=F
 DIIS: error= 2.48D-05 at cycle   6 NSaved=   6.
 NSaved= 6 IEnMin= 6 EnMin= -129.317891377949     IErMin= 6 ErrMin= 2.48D-05
 ErrMax= 2.48D-05 EMaxC= 1.00D-01 BMatC= 2.42D-08 BMatP= 6.11D-08
 IDIUse=1 WtCom= 1.00D+00 WtEn= 0.00D+00
 Coeff-Com: -0.257D-03 0.515D-02-0.716D-02-0.102D+00 0.375D+00 0.730D+00
 Coeff:     -0.257D-03 0.515D-02-0.716D-02-0.102D+00 0.375D+00 0.730D+00
 Gap=     0.377 Goal=   None    Shift=    0.000
 RMSDP=1.86D-06 MaxDP=2.53D-05 DE=-6.52D-08 OVMax= 3.80D-05

 Cycle   7  Pass 1  IDiag  1:
 E= -129.317891402000     Delta-E=       -0.000000024051 Rises=F Damp=F
 DIIS: error= 9.46D-06 at cycle   7 NSaved=   7.
 NSaved= 7 IEnMin= 7 EnMin= -129.317891402000     IErMin= 7 ErrMin= 9.46D-06
 ErrMax= 9.46D-06 EMaxC= 1.00D-01 BMatC= 1.61D-09 BMatP= 2.42D-08
 IDIUse=1 WtCom= 1.00D+00 WtEn= 0.00D+00
 Coeff-Com:  0.602D-05-0.337D-03 0.572D-02 0.182D-01-0.188D+00-0.470D+00
 Coeff-Com:  0.163D+01
 Coeff:      0.602D-05-0.337D-03 0.572D-02 0.182D-01-0.188D+00-0.470D+00
 Coeff:      0.163D+01
 Gap=     0.377 Goal=   None    Shift=    0.000
 RMSDP=1.29D-06 MaxDP=1.59D-05 DE=-2.41D-08 OVMax= 6.50D-05

 Cycle   8  Pass 1  IDiag  1:
 E= -129.317891409462     Delta-E=       -0.000000007462 Rises=F Damp=F
 DIIS: error= 3.29D-06 at cycle   8 NSaved=   8.
 NSaved= 8 IEnMin= 8 EnMin= -129.317891409462     IErMin= 8 ErrMin= 3.29D-06
 ErrMax= 3.29D-06 EMaxC= 1.00D-01 BMatC= 3.02D-10 BMatP= 1.61D-09
 IDIUse=1 WtCom= 1.00D+00 WtEn= 0.00D+00
 Coeff-Com:  0.550D-04-0.110D-02-0.944D-03 0.158D-01 0.205D-01-0.240D-01
 Coeff-Com: -0.590D+00 0.158D+01
 Coeff:      0.550D-04-0.110D-02-0.944D-03 0.158D-01 0.205D-01-0.240D-01
 Coeff:     -0.590D+00 0.158D+01
 Gap=     0.377 Goal=   None    Shift=    0.000
 RMSDP=6.49D-07 MaxDP=7.94D-06 DE=-7.46D-09 OVMax= 3.58D-05

 Cycle   9  Pass 1  IDiag  1:
 E= -129.317891410944     Delta-E=       -0.000000001482 Rises=F Damp=F
 DIIS: error= 6.71D-07 at cycle   9 NSaved=   9.
 NSaved= 9 IEnMin= 9 EnMin= -129.317891410944     IErMin= 9 ErrMin= 6.71D-07
 ErrMax= 6.71D-07 EMaxC= 1.00D-01 BMatC= 1.37D-11 BMatP= 3.02D-10
 IDIUse=1 WtCom= 1.00D+00 WtEn= 0.00D+00
 Coeff-Com: -0.122D-04 0.280D-03-0.318D-03-0.522D-02 0.108D-01 0.351D-01
 Coeff-Com:  0.321D-01-0.465D+00 0.139D+01
 Coeff:     -0.122D-04 0.280D-03-0.318D-03-0.522D-02 0.108D-01 0.351D-01
 Coeff:      0.321D-01-0.465D+00 0.139D+01
 Gap=     0.377 Goal=   None    Shift=    0.000
 RMSDP=1.77D-07 MaxDP=2.05D-06 DE=-1.48D-09 OVMax= 7.83D-06

 Cycle  10  Pass 1  IDiag  1:
 E= -129.317891411011     Delta-E=       -0.000000000067 Rises=F Damp=F
 DIIS: error= 1.04D-07 at cycle  10 NSaved=  10.
 NSaved=10 IEnMin=10 EnMin= -129.317891411011     IErMin=10 ErrMin= 1.04D-07
 ErrMax= 1.04D-07 EMaxC= 1.00D-01 BMatC= 2.89D-13 BMatP= 1.37D-11
 IDIUse=1 WtCom= 1.00D+00 WtEn= 0.00D+00
 Coeff-Com:  0.273D-05-0.711D-04 0.133D-03 0.144D-02-0.424D-02-0.101D-01
 Coeff-Com: -0.107D-02 0.131D+00-0.498D+00 0.138D+01
 Coeff:      0.273D-05-0.711D-04 0.133D-03 0.144D-02-0.424D-02-0.101D-01
 Coeff:     -0.107D-02 0.131D+00-0.498D+00 0.138D+01
 Gap=     0.377 Goal=   None    Shift=    0.000
 RMSDP=2.83D-08 MaxDP=4.78D-07 DE=-6.75D-11 OVMax= 7.31D-07

 Cycle  11  Pass 1  IDiag  1:
 E= -129.317891411012     Delta-E=       -0.000000000001 Rises=F Damp=F
 DIIS: error= 1.55D-08 at cycle  11 NSaved=  11.
 NSaved=11 IEnMin=11 EnMin= -129.317891411012     IErMin=11 ErrMin= 1.55D-08
 ErrMax= 1.55D-08 EMaxC= 1.00D-01 BMatC= 1.32D-14 BMatP= 2.89D-13
 IDIUse=1 WtCom= 1.00D+00 WtEn= 0.00D+00
 Coeff-Com: -0.508D-06 0.143D-04-0.357D-04-0.309D-03 0.108D-02 0.263D-02
 Coeff-Com: -0.213D-02-0.268D-01 0.124D+00-0.503D+00 0.140D+01
 Coeff:     -0.508D-06 0.143D-04-0.357D-04-0.309D-03 0.108D-02 0.263D-02
 Coeff:     -0.213D-02-0.268D-01 0.124D+00-0.503D+00 0.140D+01
 Gap=     0.377 Goal=   None    Shift=    0.000
 RMSDP=5.55D-09 MaxDP=1.19D-07 DE=-7.96D-13 OVMax= 1.75D-07

 Error on total polarization charges =  0.01902
 SCF Done:  E(RHF) =  -129.317891411     A.U. after   11 cycles
             Convg  =    0.5551D-08             -V/T =  2.0019
 KE= 1.290689386481D+02 PE=-3.579161335242D+02 EE= 7.609966508233D+01
 Leave Link  502 at Mon Jul 23 16:33:48 2012, MaxMem= 1610612736 cpu:      13.7
 (Enter /group/hpc-share/gaussian/2009B/g09/l801.exe)
 ExpMin= 6.39D-02 ExpMax= 8.59D+03 ExpMxC= 1.30D+03 IAcc=3 IRadAn=         5 AccDes= 0.00D+00
 HarFok:  IExCor=  205 AccDes= 0.00D+00 IRadAn=         5 IDoV=-2
 ScaDFX=  1.000000  1.000000  1.000000  1.000000
 Largest valence mixing into a core orbital is  1.36D-04
 Largest core mixing into a valence orbital is  5.02D-05
 Range of M.O.s used for correlation:     3    68
 NBasis=    68 NAE=     8 NBE=     8 NFC=     2 NFV=     0
 NROrb=     66 NOA=     6 NOB=     6 NVA=    60 NVB=    60

 **** Warning!!: The largest alpha MO coefficient is  0.10549556D+02

 Leave Link  801 at Mon Jul 23 16:33:48 2012, MaxMem= 1610612736 cpu:       0.3
 (Enter /group/hpc-share/gaussian/2009B/g09/l906.exe)
 FulOut=F Deriv=F AODrv=F NAtomX=     2
   MMem=           0  MDisk=           6 MDiskD=           6
  W3Min=       28080 MinDsk=      123353 NBas6D=          78
 NBas2D=        3279    NTT=        3081    LW2=     2000000
    MDV=  1610579680 MDiskM=      103114 NBas2p=        3279
 Disk-based method using OVN memory for  6 occupieds at a time.
 Permanent disk used for amplitudes and <ij||ab> integrals=      312300 words.
 Estimated scratch disk usage=     4324120 words.
 IMap=   1   2   3   4   5   6
 Actual    scratch disk usage=     3539736 words.
 JobTyp=1 Pass  1:  I=   1 to   6 NPSUse=  8 ParTrn=T ParDer=T DoDerP=F.
 (rs|ai) integrals will be sorted in core.
 Spin components of T(2) and E(2):
     alpha-alpha T2 =       0.1687753975D-01 E2=     -0.5559807311D-01
     alpha-beta  T2 =       0.9507060131D-01 E2=     -0.3214547605D+00
     beta-beta   T2 =       0.1687753975D-01 E2=     -0.5559807311D-01
 The integrals were generated   1 times.
 ANorm=    0.1062462084D+01
 E2 =    -0.4326509067D+00 EUMP2 =    -0.12975054231776D+03
 Leave Link  906 at Mon Jul 23 16:33:50 2012, MaxMem= 1610612736 cpu:       2.0
 (Enter /group/hpc-share/gaussian/2009B/g09/l904.exe)

 Complete Basis Set (CBS) Extrapolation:
 M. R. Nyden and G. A. Petersson, JCP 75, 1843 (1981)
 G. A. Petersson and M. A. Al-Laham, JCP 94, 6081 (1991)
 G. A. Petersson, T. Tensfeldt, and J. A. Montgomery, JCP 94, 6091 (1991)
 J. A. Montgomery, J. W. Ochterski, and G. A. Petersson, JCP 101, 5900 (1994)
 
 Available Memory in CBS = 1610612736
 Minimum Number of PNO for Extrapolation =  10
 Absolute Overlaps: IRadAn =     99590
 LocTrn: ILocal=3 LocCor=F DoCore=F.
 LocMO: Using population method
 Initial Trace= 0.60000000D+01 Initial TraceA= 0.32757376D+01
 RMSG= 0.41219924D-09
 There are a total of       97940 grid points.
 ElSum from         orbitals=        8.0000000099
 E2(CBS)=      -0.478341 CBS-Int=       0.014243 OIii=       3.372026
 Leave Link  904 at Mon Jul 23 16:33:52 2012, MaxMem= 1610612736 cpu:       7.5
 (Enter /group/hpc-share/gaussian/2009B/g09/l601.exe)
 Copying SCF densities to generalized density rwf, IOpCl= 0 IROHF=0.

 **********************************************************************

            Population analysis using the SCF density.

 **********************************************************************

 Orbital symmetries:
       Occupied  (SG) (SG) (SG) (SG) (PI) (SG) (PI) (?A)
       Virtual   (SG) (?A) (SG) (?A) (?A) (SG) (?A) (?A) (SG) (SG)
                 (SG) (?A) (?A) (SG) (?B) (?B) (?B) (?C) (?C) (?C)
                 (?C) (?D) (?D) (?D) (SG) (PI) (PI) (SG) (?E) (?E)
                 (?F) (?F) (?E) (?E) (?E) (?F) (?E) (SG) (?G) (?G)
                 (?G) (PI) (PI) (?H) (?H) (?H) (?H) (?I) (?I) (?I)
                 (PI) (PI) (DLTA) (DLTA) (SG) (PI) (PI) (SG) (SG)
                 (SG)
 Unable to determine electronic state:  an orbital has unidentified symmetry.
 Alpha  occ. eigenvalues --  -20.53208 -15.55669  -1.35650  -0.81338  -0.54926
 Alpha  occ. eigenvalues --   -0.51504  -0.47050  -0.24591
 Alpha virt. eigenvalues --    0.13114   0.13261   0.16797   0.19102   0.22673
 Alpha virt. eigenvalues --    0.26942   0.29980   0.32403   0.46586   0.60460
 Alpha virt. eigenvalues --    1.00010   1.02990   1.04421   1.20799   1.25021
 Alpha virt. eigenvalues --    1.25527   1.28897   1.33517   1.34177   1.41199
 Alpha virt. eigenvalues --    1.41280   1.80934   1.88627   1.88720   2.12492
 Alpha virt. eigenvalues --    2.38033   2.39516   2.73786   3.97520   3.97535
 Alpha virt. eigenvalues --    3.97821   3.98027   4.24634   4.28311   4.31339
 Alpha virt. eigenvalues --    4.32628   4.33235   4.86899   5.19378   5.23709
 Alpha virt. eigenvalues --    5.24163   5.30816   5.34012   5.53807   5.53826
 Alpha virt. eigenvalues --    5.64187   5.65992   5.85011   5.85018   6.13403
 Alpha virt. eigenvalues --    6.80622   6.83511   7.35078   7.35079   7.65284
 Alpha virt. eigenvalues --    7.71640   7.73902   8.14202  37.10195  51.74325
          Condensed to atoms (all electrons):
              1          2
     1  N    7.807980  -0.186589
     2  O   -0.186589   8.565198
 Mulliken atomic charges:
              1
     1  N   -0.621391
     2  O   -0.378609
 Sum of Mulliken atomic charges =  -1.00000
 Mulliken charges with hydrogens summed into heavy atoms:
              1
     1  N   -0.621391
     2  O   -0.378609
 Sum of Mulliken charges with hydrogens summed into heavy atoms =  -1.00000
 Electronic spatial extent (au):  <R**2>=             55.0313
 Charge=             -1.0000 electrons
 Dipole moment (field-independent basis, Debye):
    X=              0.0000    Y=              0.0000    Z=              0.7226  Tot=              0.7226
 Quadrupole moment (field-independent basis, Debye-Ang):
   XX=            -12.3862   YY=            -15.5728   ZZ=            -17.3737
   XY=              0.0000   XZ=              0.0000   YZ=              0.0000
 Traceless Quadrupole moment (field-independent basis, Debye-Ang):
   XX=              2.7247   YY=             -0.4619   ZZ=             -2.2628
   XY=              0.0000   XZ=              0.0000   YZ=              0.0000
 Octapole moment (field-independent basis, Debye-Ang**2):
  XXX=              0.0000  YYY=              0.0000  ZZZ=              5.7718  XYY=              0.0000
  XXY=              0.0000  XXZ=              0.8359  XZZ=              0.0000  YZZ=              0.0000
  YYZ=              3.1530  XYZ=              0.0000
 Hexadecapole moment (field-independent basis, Debye-Ang**3):
 XXXX=            -12.9008 YYYY=            -20.8237 ZZZZ=            -52.1592 XXXY=              0.0000
 XXXZ=              0.0000 YYYX=              0.0000 YYYZ=              0.0000 ZZZX=              0.0000
 ZZZY=              0.0000 XXYY=             -5.6229 XXZZ=            -10.1245 YYZZ=            -14.6292
 XXYZ=              0.0000 YYXZ=              0.0000 ZZXY=              0.0000
 N-N= 2.342963838279D+01 E-N=-3.579161334979D+02  KE= 1.290689386481D+02
 Symmetry A1   KE= 1.173403612078D+02
 Symmetry A2   KE= 1.195085128706D-35
 Symmetry B1   KE= 3.612781521255D+00
 Symmetry B2   KE= 8.115795919072D+00
 Leave Link  601 at Mon Jul 23 16:33:52 2012, MaxMem= 1610612736 cpu:       0.8
 (Enter /group/hpc-share/gaussian/2009B/g09/l9999.exe)
 1\1\GINC-HPC-CN59\SP\RMP2-FC\CBSB3\N1O1(1-)\TALIPOVM\23-Jul-2012\0\\#P
  Geom=AllCheck Guess=TCheck SCRF=Check MP2/CBSB3 CBSExtrap=(NMin=10,Mi
 nPop)\\\-1,1\N,0,0.,0.,-0.032402498\O,0,0.,0.,1.232402498\\Version=EM6
 4L-G09RevB.01\HF=-129.3178914\MP2=-129.7505423\E2(CBS)=-0.4783405\CBS-
 Int=-0.4640973\OIii=3.3720261\RMSD=5.551e-09\PG=C*V [C*(N1O1)]\\@


 Some scientists claim that hydrogen, because it is so
 plentiful, is the basic building block of the universe. 
 I dispute that. I say that stupidity is far more
 abundant than hydrogen, and THAT is the basic building 
 block of the universe.
                   --Frank Zappa

 Complete Basis Set (CBS) Extrapolation:
 M. R. Nyden and G. A. Petersson, JCP 75, 1843 (1981)
 G. A. Petersson and M. A. Al-Laham, JCP 94, 6081 (1991)
 G. A. Petersson, T. Tensfeldt, and J. A. Montgomery, JCP 94, 6091 (1991)
 J. A. Montgomery, J. W. Ochterski, and G. A. Petersson, JCP 101, 5900 (1994)

 Temperature=               298.150000 Pressure=                       1.000000
 E(ZPE)=                      0.003300 E(Thermal)=                     0.005667
 E(SCF)=                   -129.317891 DE(MP2)=                       -0.432651
 DE(CBS)=                    -0.045690 DE(MP34)=                      -0.009145
 DE(CCSD)=                   -0.013885 DE(Int)=                        0.014243
 DE(Empirical)=              -0.019524
 CBS-QB3 (0 K)=            -129.821242 CBS-QB3 Energy=              -129.818875
 CBS-QB3 Enthalpy=         -129.817931 CBS-QB3 Free Energy=         -129.840759
 1\1\GINC-HPC-CN59\Mixed\CBS-QB3\CBS-QB3\N1O1(1-)\TALIPOVM\23-Jul-2012\
 0\\#p cbs-qb3 scrf(pcm,solvent=water)\\\-1,1\N,0,0.,0.,-0.032402498\O,
 0,0.,0.,1.232402498\\Version=EM64L-G09RevB.01\HF/CbsB3=-129.3178914\E2
 (CBS)/CbsB3=-0.4783405\CBS-Int/CbsB3=0.0142433\OIii/CbsB3=3.3720261\MP
 2/CbsB4=-129.6337627\MP4(SDQ)/CbsB4=-129.6429075\MP4(SDQ)/6-31+G(d')=-
 129.6429075\QCISD(T)/6-31+G(d')=-129.6567921\CBSQB3=-129.8212417\FreqC
 oord=0.,0.,-0.0612318472,0.,0.,2.3289032067\PG=C*V [C*(N1O1)]\NImag=0\
 \-0.00009149,0.,-0.00080904,0.,0.,0.60505164,0.00009149,0.,0.,-0.00009
 149,0.,0.00080904,0.,0.,-0.00080904,0.,0.,-0.60505164,0.,0.,0.60505164
 \\0.,0.,-0.00019849,0.,0.,0.00019849\\\@
 Job cpu time:  0 days  0 hours  0 minutes 30.5 seconds.
 File lengths (MBytes):  RWF=     41 Int=      0 D2E=      0 Chk=      2 Scr=      1
 Normal termination of Gaussian 09 at Mon Jul 23 16:33:53 2012.
