 Entering Gaussian System, Link 0=g09
 Input=p.com
 Output=p.log
 AtFile(1): p.xyz
            C         -0.86223       -0.74359       -0.13017
            C         -0.86228        0.74360       -0.13038
            N          0.19008        0.00007        0.58181
            O          1.38870       -0.00025       -0.23613
            H         -0.54930       -1.24227       -1.04282
            H         -1.53708       -1.30625        0.51065
            H         -1.53713        1.30638        0.51034
            H         -0.54939        1.24206       -1.04315
 Initial command:
 /group/hpc-share/gaussian/2009C/g09/l1.exe /tmp/g_p.com-288397.hn1.marqnet.mu.edu/Gau-9544.inp -scrdir=/tmp/g_p.com-288397.hn1.marqnet.mu.edu/
 Entering Link 1 = /group/hpc-share/gaussian/2009C/g09/l1.exe PID=      9545.
  
 Copyright (c) 1988,1990,1992,1993,1995,1998,2003,2009,2011,
            Gaussian, Inc.  All Rights Reserved.
  
 This is part of the Gaussian(R) 09 program.  It is based on
 the Gaussian(R) 03 system (copyright 2003, Gaussian, Inc.),
 the Gaussian(R) 98 system (copyright 1998, Gaussian, Inc.),
 the Gaussian(R) 94 system (copyright 1995, Gaussian, Inc.),
 the Gaussian 92(TM) system (copyright 1992, Gaussian, Inc.),
 the Gaussian 90(TM) system (copyright 1990, Gaussian, Inc.),
 the Gaussian 88(TM) system (copyright 1988, Gaussian, Inc.),
 the Gaussian 86(TM) system (copyright 1986, Carnegie Mellon
 University), and the Gaussian 82(TM) system (copyright 1983,
 Carnegie Mellon University). Gaussian is a federally registered
 trademark of Gaussian, Inc.
  
 This software contains proprietary and confidential information,
 including trade secrets, belonging to Gaussian, Inc.
  
 This software is provided under written license and may be
 used, copied, transmitted, or stored only in accord with that
 written license.
  
 The following legend is applicable only to US Government
 contracts under FAR:
  
                    RESTRICTED RIGHTS LEGEND
  
 Use, reproduction and disclosure by the US Government is
 subject to restrictions as set forth in subparagraphs (a)
 and (c) of the Commercial Computer Software - Restricted
 Rights clause in FAR 52.227-19.
  
 Gaussian, Inc.
 340 Quinnipiac St., Bldg. 40, Wallingford CT 06492
  
  
 ---------------------------------------------------------------
 Warning -- This program may not be used in any manner that
 competes with the business of Gaussian, Inc. or will provide
 assistance to any competitor of Gaussian, Inc.  The licensee
 of this program is prohibited from giving any competitor of
 Gaussian, Inc. access to this program.  By using this program,
 the user acknowledges that Gaussian, Inc. is engaged in the
 business of creating and licensing software in the field of
 computational chemistry and represents and warrants to the
 licensee that it is not a competitor of Gaussian, Inc. and that
 it will not use this program in any manner prohibited above.
 ---------------------------------------------------------------
  

 Cite this work as:
 Gaussian 09, Revision C.01,
 M. J. Frisch, G. W. Trucks, H. B. Schlegel, G. E. Scuseria, 
 M. A. Robb, J. R. Cheeseman, G. Scalmani, V. Barone, B. Mennucci, 
 G. A. Petersson, H. Nakatsuji, M. Caricato, X. Li, H. P. Hratchian, 
 A. F. Izmaylov, J. Bloino, G. Zheng, J. L. Sonnenberg, M. Hada, 
 M. Ehara, K. Toyota, R. Fukuda, J. Hasegawa, M. Ishida, T. Nakajima, 
 Y. Honda, O. Kitao, H. Nakai, T. Vreven, J. A. Montgomery, Jr., 
 J. E. Peralta, F. Ogliaro, M. Bearpark, J. J. Heyd, E. Brothers, 
 K. N. Kudin, V. N. Staroverov, T. Keith, R. Kobayashi, J. Normand, 
 K. Raghavachari, A. Rendell, J. C. Burant, S. S. Iyengar, J. Tomasi, 
 M. Cossi, N. Rega, J. M. Millam, M. Klene, J. E. Knox, J. B. Cross, 
 V. Bakken, C. Adamo, J. Jaramillo, R. Gomperts, R. E. Stratmann, 
 O. Yazyev, A. J. Austin, R. Cammi, C. Pomelli, J. W. Ochterski, 
 R. L. Martin, K. Morokuma, V. G. Zakrzewski, G. A. Voth, 
 P. Salvador, J. J. Dannenberg, S. Dapprich, A. D. Daniels, 
 O. Farkas, J. B. Foresman, J. V. Ortiz, J. Cioslowski, 
 and D. J. Fox, Gaussian, Inc., Wallingford CT, 2010.
 
 ******************************************
 Gaussian 09:  EM64L-G09RevC.01 23-Sep-2011
                24-Sep-2012 
 ******************************************
 %nproc=8
 Will use up to    8 processors via shared memory.
 %mem=12Gb
 %chk=p.chk
 ---------------------------------------
 #p b3lyp/6-31g(d) opt freq pop(nboread)
 ---------------------------------------
 1/14=-1,18=20,19=15,26=3,38=1/1,3;
 2/9=110,12=2,17=6,18=5,40=1/2;
 3/5=1,6=6,7=1,11=2,16=1,25=1,30=1,71=1,74=-5/1,2,3;
 4//1;
 5/5=2,38=5/2;
 6/7=2,8=2,9=2,10=2,28=1,40=1/1,7;
 7//1,2,3,16;
 1/14=-1,18=20,19=15/3(2);
 2/9=110/2;
 99//99;
 2/9=110/2;
 3/5=1,6=6,7=1,11=2,16=1,25=1,30=1,71=1,74=-5/1,2,3;
 4/5=5,16=3/1;
 5/5=2,38=5/2;
 7//1,2,3,16;
 1/14=-1,18=20,19=15/3(-5);
 2/9=110/2;
 6/7=2,8=2,9=2,10=2,19=2,28=1,40=1/1,7;
 99/9=1/99;
 Leave Link    1 at Mon Sep 24 14:18:37 2012, MaxMem= 1610612736 cpu:       0.5
 (Enter /group/hpc-share/gaussian/2009C/g09/l101.exe)


 Charge =  0 Multiplicity = 2
 Symbolic Z-Matrix:
 C                    -0.86223  -0.74359  -0.13017 
 C                    -0.86228   0.7436   -0.13038 
 N                     0.19008   0.00007   0.58181 
 O                     1.3887   -0.00025  -0.23613 
 H                    -0.5493   -1.24227  -1.04282 
 H                    -1.53708  -1.30625   0.51065 
 H                    -1.53713   1.30638   0.51034 
 H                    -0.54939   1.24206  -1.04315 
 
 NAtoms=      8 NQM=        0 NQMF=       0 NMMI=      8 NMMIF=      0
                NMic=       0 NMicF=      0.
                    Isotopes and Nuclear Properties:
 (Nuclear quadrupole moments (NQMom) in fm**2, nuclear magnetic moments (NMagM)
  in nuclear magnetons)

  Atom         1           2           3           4           5           6           7           8
 IAtWgt=          12          12          14          16           1           1           1           1
 AtmWgt=  12.0000000  12.0000000  14.0030740  15.9949146   1.0078250   1.0078250   1.0078250   1.0078250
 NucSpn=           0           0           2           0           1           1           1           1
 AtZEff=   0.0000000   0.0000000   0.0000000   0.0000000   0.0000000   0.0000000   0.0000000   0.0000000
 NQMom=    0.0000000   0.0000000   2.0440000   0.0000000   0.0000000   0.0000000   0.0000000   0.0000000
 NMagM=    0.0000000   0.0000000   0.4037610   0.0000000   2.7928460   2.7928460   2.7928460   2.7928460
 Leave Link  101 at Mon Sep 24 14:18:37 2012, MaxMem= 1610612736 cpu:       2.0
 (Enter /group/hpc-share/gaussian/2009C/g09/l103.exe)

 GradGradGradGradGradGradGradGradGradGradGradGradGradGradGradGradGradGrad
 Berny optimization.
 Initialization pass.
                           ----------------------------
                           !    Initial Parameters    !
                           ! (Angstroms and Degrees)  !
 --------------------------                            --------------------------
 ! Name  Definition              Value          Derivative Info.                !
 --------------------------------------------------------------------------------
 ! R1    R(1,2)                  1.4872         estimate D2E/DX2                !
 ! R2    R(1,3)                  1.4722         estimate D2E/DX2                !
 ! R3    R(1,5)                  1.0861         estimate D2E/DX2                !
 ! R4    R(1,6)                  1.0875         estimate D2E/DX2                !
 ! R5    R(2,3)                  1.4722         estimate D2E/DX2                !
 ! R6    R(2,7)                  1.0875         estimate D2E/DX2                !
 ! R7    R(2,8)                  1.0861         estimate D2E/DX2                !
 ! R8    R(3,4)                  1.4511         estimate D2E/DX2                !
 ! A1    A(2,1,5)              117.326          estimate D2E/DX2                !
 ! A2    A(2,1,6)              121.1614         estimate D2E/DX2                !
 ! A3    A(3,1,5)              115.6193         estimate D2E/DX2                !
 ! A4    A(3,1,6)              114.8311         estimate D2E/DX2                !
 ! A5    A(5,1,6)              115.8748         estimate D2E/DX2                !
 ! A6    A(1,2,7)              121.1603         estimate D2E/DX2                !
 ! A7    A(1,2,8)              117.3273         estimate D2E/DX2                !
 ! A8    A(3,2,7)              114.8292         estimate D2E/DX2                !
 ! A9    A(3,2,8)              115.6212         estimate D2E/DX2                !
 ! A10   A(7,2,8)              115.8762         estimate D2E/DX2                !
 ! A11   A(1,3,4)              108.5246         estimate D2E/DX2                !
 ! A12   A(2,3,4)              108.534          estimate D2E/DX2                !
 ! D1    D(5,1,2,7)            152.4418         estimate D2E/DX2                !
 ! D2    D(5,1,2,8)              0.0            estimate D2E/DX2                !
 ! D3    D(6,1,2,7)              0.0042         estimate D2E/DX2                !
 ! D4    D(6,1,2,8)           -152.4376         estimate D2E/DX2                !
 ! D5    D(5,1,3,4)              6.6949         estimate D2E/DX2                !
 ! D6    D(6,1,3,4)            145.7362         estimate D2E/DX2                !
 ! D7    D(7,2,3,4)           -145.7536         estimate D2E/DX2                !
 ! D8    D(8,2,3,4)             -6.7098         estimate D2E/DX2                !
 --------------------------------------------------------------------------------
 Trust Radius=3.00D-01 FncErr=1.00D-07 GrdErr=1.00D-06
 Number of steps in this run=     38 maximum allowed number of steps=    100.
 GradGradGradGradGradGradGradGradGradGradGradGradGradGradGradGradGradGrad

 Leave Link  103 at Mon Sep 24 14:18:37 2012, MaxMem= 1610612736 cpu:       0.0
 (Enter /group/hpc-share/gaussian/2009C/g09/l202.exe)
                          Input orientation:                          
 ---------------------------------------------------------------------
 Center     Atomic      Atomic             Coordinates (Angstroms)
 Number     Number       Type             X           Y           Z
 ---------------------------------------------------------------------
      1          6           0       -0.862230   -0.743590   -0.130170
      2          6           0       -0.862280    0.743600   -0.130380
      3          7           0        0.190080    0.000070    0.581810
      4          8           0        1.388700   -0.000250   -0.236130
      5          1           0       -0.549300   -1.242270   -1.042820
      6          1           0       -1.537080   -1.306250    0.510650
      7          1           0       -1.537130    1.306380    0.510340
      8          1           0       -0.549390    1.242060   -1.043150
 ---------------------------------------------------------------------
                    Distance matrix (angstroms):
                    1          2          3          4          5
     1  C    0.000000
     2  C    1.487190   0.000000
     3  N    1.472176   1.472248   0.000000
     4  O    2.372861   2.373059   1.451108   0.000000
     5  H    1.086065   2.207755   2.174745   2.439100   0.000000
     6  H    1.087501   2.251257   2.166707   3.289910   1.842029
     7  H    2.251249   1.087504   2.166751   3.290134   3.143840
     8  H    2.207761   1.086053   2.174822   2.439428   2.484330
                    6          7          8
     6  H    0.000000
     7  H    2.612630   0.000000
     8  H    3.143837   1.842037   0.000000
 Stoichiometry    C2H4NO(2)
 Framework group  C1[X(C2H4NO)]
 Deg. of freedom    18
 Full point group                 C1      NOp   1
 Largest Abelian subgroup         C1      NOp   1
 Largest concise Abelian subgroup C1      NOp   1
                         Standard orientation:                         
 ---------------------------------------------------------------------
 Center     Atomic      Atomic             Coordinates (Angstroms)
 Number     Number       Type             X           Y           Z
 ---------------------------------------------------------------------
      1          6           0       -0.789791    0.743679    0.147264
      2          6           0       -0.790126   -0.743511    0.147302
      3          7           0        0.233396   -0.000095   -0.605856
      4          8           0        1.463422   -0.000107    0.164049
      5          1           0       -0.440920    1.242186    1.046884
      6          1           0       -1.489342    1.306549   -0.466305
      7          1           0       -1.489894   -1.306081   -0.466298
      8          1           0       -0.441487   -1.242144    1.046928
 ---------------------------------------------------------------------
 Rotational constants (GHZ):     17.7124665      7.9809889      6.7899256
 Leave Link  202 at Mon Sep 24 14:18:37 2012, MaxMem= 1610612736 cpu:       0.0
 (Enter /group/hpc-share/gaussian/2009C/g09/l301.exe)
 Standard basis: 6-31G(d) (6D, 7F)
 Ernie: Thresh=  0.10000D-02 Tol=  0.10000D-05 Strict=F.
 There are    68 symmetry adapted basis functions of A   symmetry.
 Integral buffers will be    131072 words long.
 Raffenetti 2 integral format.
 Two-electron integral symmetry is turned on.
    68 basis functions,   128 primitive gaussians,    68 cartesian basis functions
    16 alpha electrons       15 beta electrons
       nuclear repulsion energy       116.4129396779 Hartrees.
 IExCor=  402 DFT=T Ex+Corr=B3LYP ExCW=0 ScaHFX=  0.200000
 ScaDFX=  0.800000  0.720000  1.000000  0.810000 ScalE2=  1.000000  1.000000
 IRadAn=      0 IRanWt=     -1 IRanGd=            0 ICorTp=0
 NAtoms=    8 NActive=    8 NUniq=    8 SFac= 1.00D+00 NAtFMM=   60 NAOKFM=F Big=F
 Leave Link  301 at Mon Sep 24 14:18:37 2012, MaxMem= 1610612736 cpu:       0.4
 (Enter /group/hpc-share/gaussian/2009C/g09/l302.exe)
 NPDir=0 NMtPBC=     1 NCelOv=     1 NCel=       1 NClECP=     1 NCelD=      1
         NCelK=      1 NCelE2=     1 NClLst=     1 CellRange=     0.0.
 One-electron integrals computed using PRISM.
 NBasis=    68 RedAO= T  NBF=    68
 NBsUse=    68 1.00D-06 NBFU=    68
 Precomputing XC quadrature grid using
 IXCGrd= 2 IRadAn=           0 IRanWt=          -1 IRanGd=           0 AccXCQ= 0.00D+00.
 NRdTot=     492 NPtTot=       62374 NUsed=       65935 NTot=       65967
 NSgBfM=    68    68    68    68    68 NAtAll=     8     8.
 Leave Link  302 at Mon Sep 24 14:18:38 2012, MaxMem= 1610612736 cpu:       2.1
 (Enter /group/hpc-share/gaussian/2009C/g09/l303.exe)
 DipDrv:  MaxL=1.
 Leave Link  303 at Mon Sep 24 14:18:38 2012, MaxMem= 1610612736 cpu:       0.3
 (Enter /group/hpc-share/gaussian/2009C/g09/l401.exe)
 Harris functional with IExCor=  402 diagonalized for initial guess.
 ExpMin= 1.61D-01 ExpMax= 5.48D+03 ExpMxC= 8.25D+02 IAcc=1 IRadAn=         1 AccDes= 0.00D+00
 HarFok:  IExCor=  402 AccDes= 0.00D+00 IRadAn=         1 IDoV= 1
 ScaDFX=  1.000000  1.000000  1.000000  1.000000
 FoFCou: FMM=F IPFlag=           0 FMFlag=      100000 FMFlg1=           0
         NFxFlg=           0 DoJE=T BraDBF=F KetDBF=T FulRan=T
         Omega=  0.000000  0.000000  1.000000  0.000000  0.000000 ICntrl=     500 IOpCl=  0
         NMat0=    1 NMatS0=    1 NMatT0=    0 NMatD0=    1 NMtDS0=    0 NMtDT0=    0
         I1Cent=           4 NGrid=           0.
 Petite list used in FoFCou.
 Harris En= -208.402247186371    
 Initial guess orbital symmetries:
 Alpha Orbitals:
       Occupied  (A) (A) (A) (A) (A) (A) (A) (A) (A) (A) (A) (A)
                 (A) (A) (A) (A)
       Virtual   (A) (A) (A) (A) (A) (A) (A) (A) (A) (A) (A) (A)
                 (A) (A) (A) (A) (A) (A) (A) (A) (A) (A) (A) (A)
                 (A) (A) (A) (A) (A) (A) (A) (A) (A) (A) (A) (A)
                 (A) (A) (A) (A) (A) (A) (A) (A) (A) (A) (A) (A)
                 (A) (A) (A) (A)
 Beta  Orbitals:
       Occupied  (A) (A) (A) (A) (A) (A) (A) (A) (A) (A) (A) (A)
                 (A) (A) (A)
       Virtual   (A) (A) (A) (A) (A) (A) (A) (A) (A) (A) (A) (A)
                 (A) (A) (A) (A) (A) (A) (A) (A) (A) (A) (A) (A)
                 (A) (A) (A) (A) (A) (A) (A) (A) (A) (A) (A) (A)
                 (A) (A) (A) (A) (A) (A) (A) (A) (A) (A) (A) (A)
                 (A) (A) (A) (A) (A)
 The electronic state of the initial guess is 2-A.
 Initial guess <Sx>= 0.0000 <Sy>= 0.0000 <Sz>= 0.5000 <S**2>= 0.7500 S= 0.5000
 Leave Link  401 at Mon Sep 24 14:18:39 2012, MaxMem= 1610612736 cpu:       2.1
 (Enter /group/hpc-share/gaussian/2009C/g09/l502.exe)
 UHF open shell SCF:
 Requested convergence on RMS density matrix=1.00D-08 within 128 cycles.
 Requested convergence on MAX density matrix=1.00D-06.
 Requested convergence on             energy=1.00D-06.
 No special actions if energy rises.
 Using DIIS extrapolation, IDIIS=  1040.
 Integral symmetry usage will be decided dynamically.
        65850 words used for storage of precomputed grid.
 Keep R1 and R2 ints in memory in canonical form, NReq=6493445.
 IEnd=       98928 IEndB=       98928 NGot=  1610612736 MDV=  1605029051
 LenX=  1605029051 LenY=  1605023986
 Symmetry not used in FoFDir.
 MinBra= 0 MaxBra= 2 Meth= 1.
 IRaf=       0 NMat=   1 IRICut=       1 DoRegI=T DoRafI=F ISym2E= 0 JSym2E=0.
 Integral accuracy reduced to 1.0D-05 until final iterations.

 Cycle   1  Pass 0  IDiag  1:
 E= -208.361507527618    
 DIIS: error= 2.64D-02 at cycle   1 NSaved=   1.
 NSaved= 1 IEnMin= 1 EnMin= -208.361507527618     IErMin= 1 ErrMin= 2.64D-02
 ErrMax= 2.64D-02 EMaxC= 1.00D-01 BMatC= 2.96D-01 BMatP= 2.96D-01
 IDIUse=3 WtCom= 7.36D-01 WtEn= 2.64D-01
 Coeff-Com:  0.100D+01
 Coeff-En:   0.100D+01
 Coeff:      0.100D+01
 Gap=     0.325 Goal=   None    Shift=    0.000
 Gap=     0.070 Goal=   None    Shift=    0.000
 GapD=    0.070 DampG=0.500 DampE=0.500 DampFc=0.2500 IDamp=-1.
 Damping current iteration by 2.50D-01
 RMSDP=8.15D-03 MaxDP=1.34D-01              OVMax= 2.67D-01

 Cycle   2  Pass 0  IDiag  1:
 E= -208.386472473691     Delta-E=       -0.024964946074 Rises=F Damp=T
 DIIS: error= 1.25D-02 at cycle   2 NSaved=   2.
 NSaved= 2 IEnMin= 2 EnMin= -208.386472473691     IErMin= 2 ErrMin= 1.25D-02
 ErrMax= 1.25D-02 EMaxC= 1.00D-01 BMatC= 6.11D-02 BMatP= 2.96D-01
 IDIUse=3 WtCom= 8.75D-01 WtEn= 1.25D-01
 Coeff-Com: -0.381D+00 0.138D+01
 Coeff-En:   0.000D+00 0.100D+01
 Coeff:     -0.333D+00 0.133D+01
 Gap=     0.329 Goal=   None    Shift=    0.000
 Gap=     0.114 Goal=   None    Shift=    0.000
 RMSDP=2.89D-03 MaxDP=3.44D-02 DE=-2.50D-02 OVMax= 2.08D-01

 Cycle   3  Pass 0  IDiag  1:
 E= -208.427503957582     Delta-E=       -0.041031483890 Rises=F Damp=F
 DIIS: error= 8.84D-03 at cycle   3 NSaved=   3.
 NSaved= 3 IEnMin= 3 EnMin= -208.427503957582     IErMin= 3 ErrMin= 8.84D-03
 ErrMax= 8.84D-03 EMaxC= 1.00D-01 BMatC= 2.85D-02 BMatP= 6.11D-02
 IDIUse=3 WtCom= 9.12D-01 WtEn= 8.84D-02
 Coeff-Com: -0.213D+00 0.649D+00 0.564D+00
 Coeff-En:   0.000D+00 0.000D+00 0.100D+01
 Coeff:     -0.194D+00 0.591D+00 0.603D+00
 Gap=     0.322 Goal=   None    Shift=    0.000
 Gap=     0.115 Goal=   None    Shift=    0.000
 RMSDP=1.73D-03 MaxDP=3.24D-02 DE=-4.10D-02 OVMax= 9.80D-02

 Cycle   4  Pass 0  IDiag  1:
 E= -208.431633189522     Delta-E=       -0.004129231941 Rises=F Damp=F
 DIIS: error= 7.54D-03 at cycle   4 NSaved=   4.
 NSaved= 4 IEnMin= 4 EnMin= -208.431633189522     IErMin= 4 ErrMin= 7.54D-03
 ErrMax= 7.54D-03 EMaxC= 1.00D-01 BMatC= 1.71D-02 BMatP= 2.85D-02
 IDIUse=3 WtCom= 9.25D-01 WtEn= 7.54D-02
 Coeff-Com:  0.407D-01-0.619D-03 0.409D+00 0.551D+00
 Coeff-En:   0.000D+00 0.000D+00 0.339D+00 0.661D+00
 Coeff:      0.376D-01-0.572D-03 0.404D+00 0.559D+00
 Gap=     0.333 Goal=   None    Shift=    0.000
 Gap=     0.123 Goal=   None    Shift=    0.000
 RMSDP=8.22D-04 MaxDP=1.29D-02 DE=-4.13D-03 OVMax= 2.05D-02

 Cycle   5  Pass 0  IDiag  1:
 E= -208.435204063233     Delta-E=       -0.003570873710 Rises=F Damp=F
 DIIS: error= 1.75D-03 at cycle   5 NSaved=   5.
 NSaved= 5 IEnMin= 5 EnMin= -208.435204063233     IErMin= 5 ErrMin= 1.75D-03
 ErrMax= 1.75D-03 EMaxC= 1.00D-01 BMatC= 7.67D-04 BMatP= 1.71D-02
 IDIUse=3 WtCom= 9.83D-01 WtEn= 1.75D-02
 Coeff-Com:  0.545D-01-0.808D-01 0.161D+00 0.252D+00 0.613D+00
 Coeff-En:   0.000D+00 0.000D+00 0.000D+00 0.000D+00 0.100D+01
 Coeff:      0.536D-01-0.794D-01 0.159D+00 0.247D+00 0.620D+00
 Gap=     0.331 Goal=   None    Shift=    0.000
 Gap=     0.124 Goal=   None    Shift=    0.000
 RMSDP=2.53D-04 MaxDP=3.84D-03 DE=-3.57D-03 OVMax= 1.41D-02

 Cycle   6  Pass 0  IDiag  1:
 E= -208.435410635064     Delta-E=       -0.000206571832 Rises=F Damp=F
 DIIS: error= 8.87D-04 at cycle   6 NSaved=   6.
 NSaved= 6 IEnMin= 6 EnMin= -208.435410635064     IErMin= 6 ErrMin= 8.87D-04
 ErrMax= 8.87D-04 EMaxC= 1.00D-01 BMatC= 1.84D-04 BMatP= 7.67D-04
 IDIUse=3 WtCom= 9.91D-01 WtEn= 8.87D-03
 Coeff-Com:  0.172D-01-0.383D-01-0.284D-01-0.826D-01 0.188D+00 0.944D+00
 Coeff-En:   0.000D+00 0.000D+00 0.000D+00 0.000D+00 0.000D+00 0.100D+01
 Coeff:      0.171D-01-0.379D-01-0.282D-01-0.819D-01 0.186D+00 0.945D+00
 Gap=     0.333 Goal=   None    Shift=    0.000
 Gap=     0.126 Goal=   None    Shift=    0.000
 RMSDP=1.62D-04 MaxDP=2.94D-03 DE=-2.07D-04 OVMax= 7.85D-03

 Cycle   7  Pass 0  IDiag  1:
 E= -208.435477953419     Delta-E=       -0.000067318355 Rises=F Damp=F
 DIIS: error= 2.59D-04 at cycle   7 NSaved=   7.
 NSaved= 7 IEnMin= 7 EnMin= -208.435477953419     IErMin= 7 ErrMin= 2.59D-04
 ErrMax= 2.59D-04 EMaxC= 1.00D-01 BMatC= 1.32D-05 BMatP= 1.84D-04
 IDIUse=3 WtCom= 9.97D-01 WtEn= 2.59D-03
 Coeff-Com: -0.402D-02 0.687D-02-0.191D-01-0.552D-01-0.799D-01 0.100D+00
 Coeff-Com:  0.105D+01
 Coeff-En:   0.000D+00 0.000D+00 0.000D+00 0.000D+00 0.000D+00 0.000D+00
 Coeff-En:   0.100D+01
 Coeff:     -0.401D-02 0.685D-02-0.191D-01-0.551D-01-0.797D-01 0.100D+00
 Coeff:      0.105D+01
 Gap=     0.333 Goal=   None    Shift=    0.000
 Gap=     0.127 Goal=   None    Shift=    0.000
 RMSDP=6.92D-05 MaxDP=1.36D-03 DE=-6.73D-05 OVMax= 4.54D-03

 Cycle   8  Pass 0  IDiag  1:
 E= -208.435486265029     Delta-E=       -0.000008311609 Rises=F Damp=F
 DIIS: error= 1.21D-04 at cycle   8 NSaved=   8.
 NSaved= 8 IEnMin= 8 EnMin= -208.435486265029     IErMin= 8 ErrMin= 1.21D-04
 ErrMax= 1.21D-04 EMaxC= 1.00D-01 BMatC= 1.46D-06 BMatP= 1.32D-05
 IDIUse=3 WtCom= 9.99D-01 WtEn= 1.21D-03
 Coeff-Com:  0.670D-03-0.938D-04 0.265D-02 0.377D-02-0.115D-01-0.859D-01
 Coeff-Com:  0.144D-02 0.109D+01
 Coeff-En:   0.000D+00 0.000D+00 0.000D+00 0.000D+00 0.000D+00 0.000D+00
 Coeff-En:   0.000D+00 0.100D+01
 Coeff:      0.670D-03-0.937D-04 0.264D-02 0.376D-02-0.115D-01-0.858D-01
 Coeff:      0.144D-02 0.109D+01
 Gap=     0.333 Goal=   None    Shift=    0.000
 Gap=     0.127 Goal=   None    Shift=    0.000
 RMSDP=2.13D-05 MaxDP=4.36D-04 DE=-8.31D-06 OVMax= 8.68D-04

 Cycle   9  Pass 0  IDiag  1:
 E= -208.435487031352     Delta-E=       -0.000000766323 Rises=F Damp=F
 DIIS: error= 2.93D-05 at cycle   9 NSaved=   9.
 NSaved= 9 IEnMin= 9 EnMin= -208.435487031352     IErMin= 9 ErrMin= 2.93D-05
 ErrMax= 2.93D-05 EMaxC= 1.00D-01 BMatC= 8.92D-08 BMatP= 1.46D-06
 IDIUse=1 WtCom= 1.00D+00 WtEn= 0.00D+00
 Coeff-Com:  0.815D-03-0.115D-02 0.336D-02 0.919D-02 0.111D-01-0.276D-01
 Coeff-Com: -0.156D+00 0.209D+00 0.951D+00
 Coeff:      0.815D-03-0.115D-02 0.336D-02 0.919D-02 0.111D-01-0.276D-01
 Coeff:     -0.156D+00 0.209D+00 0.951D+00
 Gap=     0.333 Goal=   None    Shift=    0.000
 Gap=     0.127 Goal=   None    Shift=    0.000
 RMSDP=5.95D-06 MaxDP=1.50D-04 DE=-7.66D-07 OVMax= 2.44D-04

 Initial convergence to 1.0D-05 achieved.  Increase integral accuracy.
 Cycle  10  Pass 1  IDiag  1:
 E= -208.435515994651     Delta-E=       -0.000028963299 Rises=F Damp=F
 DIIS: error= 1.26D-05 at cycle   1 NSaved=   1.
 NSaved= 1 IEnMin= 1 EnMin= -208.435515994651     IErMin= 1 ErrMin= 1.26D-05
 ErrMax= 1.26D-05 EMaxC= 1.00D-01 BMatC= 2.93D-08 BMatP= 2.93D-08
 IDIUse=1 WtCom= 1.00D+00 WtEn= 0.00D+00
 Coeff-Com:  0.100D+01
 Coeff:      0.100D+01
 Gap=     0.333 Goal=   None    Shift=    0.000
 Gap=     0.127 Goal=   None    Shift=    0.000
 RMSDP=5.95D-06 MaxDP=1.50D-04 DE=-2.90D-05 OVMax= 8.44D-05

 Cycle  11  Pass 1  IDiag  1:
 E= -208.435516001795     Delta-E=       -0.000000007145 Rises=F Damp=F
 DIIS: error= 1.13D-05 at cycle   2 NSaved=   2.
 NSaved= 2 IEnMin= 2 EnMin= -208.435516001795     IErMin= 2 ErrMin= 1.13D-05
 ErrMax= 1.13D-05 EMaxC= 1.00D-01 BMatC= 2.97D-08 BMatP= 2.93D-08
 IDIUse=1 WtCom= 1.00D+00 WtEn= 0.00D+00
 Coeff-Com:  0.502D+00 0.498D+00
 Coeff:      0.502D+00 0.498D+00
 Gap=     0.333 Goal=   None    Shift=    0.000
 Gap=     0.127 Goal=   None    Shift=    0.000
 RMSDP=1.54D-06 MaxDP=3.04D-05 DE=-7.14D-09 OVMax= 8.04D-05

 Cycle  12  Pass 1  IDiag  1:
 E= -208.435516005531     Delta-E=       -0.000000003736 Rises=F Damp=F
 DIIS: error= 9.92D-06 at cycle   3 NSaved=   3.
 NSaved= 3 IEnMin= 3 EnMin= -208.435516005531     IErMin= 3 ErrMin= 9.92D-06
 ErrMax= 9.92D-06 EMaxC= 1.00D-01 BMatC= 1.54D-08 BMatP= 2.93D-08
 IDIUse=1 WtCom= 1.00D+00 WtEn= 0.00D+00
 Coeff-Com: -0.657D-01 0.425D+00 0.641D+00
 Coeff:     -0.657D-01 0.425D+00 0.641D+00
 Gap=     0.333 Goal=   None    Shift=    0.000
 Gap=     0.127 Goal=   None    Shift=    0.000
 RMSDP=8.75D-07 MaxDP=2.75D-05 DE=-3.74D-09 OVMax= 4.39D-05

 Cycle  13  Pass 1  IDiag  1:
 E= -208.435516009346     Delta-E=       -0.000000003815 Rises=F Damp=F
 DIIS: error= 2.09D-06 at cycle   4 NSaved=   4.
 NSaved= 4 IEnMin= 4 EnMin= -208.435516009346     IErMin= 4 ErrMin= 2.09D-06
 ErrMax= 2.09D-06 EMaxC= 1.00D-01 BMatC= 7.87D-10 BMatP= 1.54D-08
 IDIUse=1 WtCom= 1.00D+00 WtEn= 0.00D+00
 Coeff-Com: -0.723D-01 0.128D+00 0.274D+00 0.670D+00
 Coeff:     -0.723D-01 0.128D+00 0.274D+00 0.670D+00
 Gap=     0.333 Goal=   None    Shift=    0.000
 Gap=     0.127 Goal=   None    Shift=    0.000
 RMSDP=3.04D-07 MaxDP=6.48D-06 DE=-3.82D-09 OVMax= 7.71D-06

 Cycle  14  Pass 1  IDiag  1:
 E= -208.435516009646     Delta-E=       -0.000000000300 Rises=F Damp=F
 DIIS: error= 1.01D-06 at cycle   5 NSaved=   5.
 NSaved= 5 IEnMin= 5 EnMin= -208.435516009646     IErMin= 5 ErrMin= 1.01D-06
 ErrMax= 1.01D-06 EMaxC= 1.00D-01 BMatC= 2.50D-10 BMatP= 7.87D-10
 IDIUse=1 WtCom= 1.00D+00 WtEn= 0.00D+00
 Coeff-Com: -0.628D-02-0.148D+00-0.156D+00 0.370D+00 0.940D+00
 Coeff:     -0.628D-02-0.148D+00-0.156D+00 0.370D+00 0.940D+00
 Gap=     0.333 Goal=   None    Shift=    0.000
 Gap=     0.127 Goal=   None    Shift=    0.000
 RMSDP=2.86D-07 MaxDP=7.01D-06 DE=-3.00D-10 OVMax= 1.36D-05

 Cycle  15  Pass 1  IDiag  1:
 E= -208.435516009803     Delta-E=       -0.000000000157 Rises=F Damp=F
 DIIS: error= 2.45D-07 at cycle   6 NSaved=   6.
 NSaved= 6 IEnMin= 6 EnMin= -208.435516009803     IErMin= 6 ErrMin= 2.45D-07
 ErrMax= 2.45D-07 EMaxC= 1.00D-01 BMatC= 1.98D-11 BMatP= 2.50D-10
 IDIUse=1 WtCom= 1.00D+00 WtEn= 0.00D+00
 Coeff-Com:  0.639D-02-0.669D-01-0.801D-01 0.385D-01 0.325D+00 0.777D+00
 Coeff:      0.639D-02-0.669D-01-0.801D-01 0.385D-01 0.325D+00 0.777D+00
 Gap=     0.333 Goal=   None    Shift=    0.000
 Gap=     0.127 Goal=   None    Shift=    0.000
 RMSDP=7.93D-08 MaxDP=1.56D-06 DE=-1.57D-10 OVMax= 3.56D-06

 Cycle  16  Pass 1  IDiag  1:
 E= -208.435516009816     Delta-E=       -0.000000000013 Rises=F Damp=F
 DIIS: error= 1.35D-07 at cycle   7 NSaved=   7.
 NSaved= 7 IEnMin= 7 EnMin= -208.435516009816     IErMin= 7 ErrMin= 1.35D-07
 ErrMax= 1.35D-07 EMaxC= 1.00D-01 BMatC= 4.30D-12 BMatP= 1.98D-11
 IDIUse=1 WtCom= 1.00D+00 WtEn= 0.00D+00
 Coeff-Com:  0.995D-03-0.231D-03 0.896D-02-0.296D-01-0.306D-01 0.139D+00
 Coeff-Com:  0.911D+00
 Coeff:      0.995D-03-0.231D-03 0.896D-02-0.296D-01-0.306D-01 0.139D+00
 Coeff:      0.911D+00
 Gap=     0.333 Goal=   None    Shift=    0.000
 Gap=     0.127 Goal=   None    Shift=    0.000
 RMSDP=4.39D-08 MaxDP=1.17D-06 DE=-1.26D-11 OVMax= 3.32D-06

 Cycle  17  Pass 1  IDiag  1:
 E= -208.435516009820     Delta-E=       -0.000000000004 Rises=F Damp=F
 DIIS: error= 9.13D-08 at cycle   8 NSaved=   8.
 NSaved= 8 IEnMin= 8 EnMin= -208.435516009820     IErMin= 8 ErrMin= 9.13D-08
 ErrMax= 9.13D-08 EMaxC= 1.00D-01 BMatC= 1.43D-12 BMatP= 4.30D-12
 IDIUse=1 WtCom= 1.00D+00 WtEn= 0.00D+00
 Coeff-Com: -0.133D-02 0.157D-01 0.265D-01-0.242D-01-0.967D-01-0.132D+00
 Coeff-Com:  0.288D+00 0.924D+00
 Coeff:     -0.133D-02 0.157D-01 0.265D-01-0.242D-01-0.967D-01-0.132D+00
 Coeff:      0.288D+00 0.924D+00
 Gap=     0.333 Goal=   None    Shift=    0.000
 Gap=     0.127 Goal=   None    Shift=    0.000
 RMSDP=4.59D-08 MaxDP=1.31D-06 DE=-3.64D-12 OVMax= 3.74D-06

 Cycle  18  Pass 1  IDiag  1:
 E= -208.435516009823     Delta-E=       -0.000000000003 Rises=F Damp=F
 DIIS: error= 8.38D-08 at cycle   9 NSaved=   9.
 NSaved= 9 IEnMin= 9 EnMin= -208.435516009823     IErMin= 9 ErrMin= 8.38D-08
 ErrMax= 8.38D-08 EMaxC= 1.00D-01 BMatC= 6.35D-13 BMatP= 1.43D-12
 IDIUse=1 WtCom= 1.00D+00 WtEn= 0.00D+00
 Coeff-Com: -0.624D-03 0.383D-02 0.517D-02 0.126D-02-0.174D-01-0.703D-01
 Coeff-Com: -0.220D+00 0.334D+00 0.964D+00
 Coeff:     -0.624D-03 0.383D-02 0.517D-02 0.126D-02-0.174D-01-0.703D-01
 Coeff:     -0.220D+00 0.334D+00 0.964D+00
 Gap=     0.333 Goal=   None    Shift=    0.000
 Gap=     0.127 Goal=   None    Shift=    0.000
 RMSDP=4.46D-08 MaxDP=1.32D-06 DE=-3.07D-12 OVMax= 3.76D-06

 Cycle  19  Pass 1  IDiag  1:
 E= -208.435516009826     Delta-E=       -0.000000000003 Rises=F Damp=F
 DIIS: error= 7.30D-08 at cycle  10 NSaved=  10.
 NSaved=10 IEnMin=10 EnMin= -208.435516009826     IErMin=10 ErrMin= 7.30D-08
 ErrMax= 7.30D-08 EMaxC= 1.00D-01 BMatC= 4.10D-13 BMatP= 6.35D-13
 IDIUse=1 WtCom= 1.00D+00 WtEn= 0.00D+00
 Coeff-Com:  0.765D-03-0.892D-02-0.165D-01 0.156D-01 0.599D-01 0.727D-01
 Coeff-Com: -0.232D+00-0.392D+00-0.216D+00 0.172D+01
 Coeff:      0.765D-03-0.892D-02-0.165D-01 0.156D-01 0.599D-01 0.727D-01
 Coeff:     -0.232D+00-0.392D+00-0.216D+00 0.172D+01
 Gap=     0.333 Goal=   None    Shift=    0.000
 Gap=     0.127 Goal=   None    Shift=    0.000
 RMSDP=7.60D-08 MaxDP=2.26D-06 DE=-3.30D-12 OVMax= 6.45D-06

 Cycle  20  Pass 1  IDiag  1:
 E= -208.435516009830     Delta-E=       -0.000000000004 Rises=F Damp=F
 DIIS: error= 5.75D-08 at cycle  11 NSaved=  11.
 NSaved=11 IEnMin=11 EnMin= -208.435516009830     IErMin=11 ErrMin= 5.75D-08
 ErrMax= 5.75D-08 EMaxC= 1.00D-01 BMatC= 3.52D-13 BMatP= 4.10D-13
 IDIUse=1 WtCom= 1.00D+00 WtEn= 0.00D+00
 Coeff-Com:  0.145D-02-0.106D-01-0.202D-01 0.832D-02 0.671D-01 0.144D+00
 Coeff-Com:  0.177D+00-0.634D+00-0.204D+01 0.146D+01 0.185D+01
 Coeff:      0.145D-02-0.106D-01-0.202D-01 0.832D-02 0.671D-01 0.144D+00
 Coeff:      0.177D+00-0.634D+00-0.204D+01 0.146D+01 0.185D+01
 Gap=     0.333 Goal=   None    Shift=    0.000
 Gap=     0.127 Goal=   None    Shift=    0.000
 RMSDP=1.64D-07 MaxDP=4.90D-06 DE=-3.64D-12 OVMax= 1.40D-05

 Cycle  21  Pass 1  IDiag  1:
 E= -208.435516009835     Delta-E=       -0.000000000005 Rises=F Damp=F
 DIIS: error= 2.07D-08 at cycle  12 NSaved=  12.
 NSaved=12 IEnMin=12 EnMin= -208.435516009835     IErMin=12 ErrMin= 2.07D-08
 ErrMax= 2.07D-08 EMaxC= 1.00D-01 BMatC= 6.25D-14 BMatP= 3.52D-13
 IDIUse=1 WtCom= 1.00D+00 WtEn= 0.00D+00
 Coeff-Com:  0.191D-03 0.171D-03-0.398D-03-0.473D-02-0.254D-02 0.195D-01
 Coeff-Com:  0.190D+00-0.985D-02-0.679D+00-0.219D+00 0.538D+00 0.117D+01
 Coeff:      0.191D-03 0.171D-03-0.398D-03-0.473D-02-0.254D-02 0.195D-01
 Coeff:      0.190D+00-0.985D-02-0.679D+00-0.219D+00 0.538D+00 0.117D+01
 Gap=     0.333 Goal=   None    Shift=    0.000
 Gap=     0.127 Goal=   None    Shift=    0.000
 RMSDP=8.71D-08 MaxDP=2.60D-06 DE=-5.12D-12 OVMax= 7.39D-06

 Cycle  22  Pass 1  IDiag  1:
 E= -208.435516009836     Delta-E=       -0.000000000001 Rises=F Damp=F
 DIIS: error= 2.10D-09 at cycle  13 NSaved=  13.
 NSaved=13 IEnMin=13 EnMin= -208.435516009836     IErMin=13 ErrMin= 2.10D-09
 ErrMax= 2.10D-09 EMaxC= 1.00D-01 BMatC= 1.27D-15 BMatP= 6.25D-14
 IDIUse=1 WtCom= 1.00D+00 WtEn= 0.00D+00
 Coeff-Com: -0.919D-04 0.865D-03 0.143D-02-0.622D-03-0.506D-02-0.108D-01
 Coeff-Com: -0.525D-02 0.406D-01 0.897D-01-0.981D-01-0.954D-01 0.898D-01
 Coeff-Com:  0.993D+00
 Coeff:     -0.919D-04 0.865D-03 0.143D-02-0.622D-03-0.506D-02-0.108D-01
 Coeff:     -0.525D-02 0.406D-01 0.897D-01-0.981D-01-0.954D-01 0.898D-01
 Coeff:      0.993D+00
 Gap=     0.333 Goal=   None    Shift=    0.000
 Gap=     0.127 Goal=   None    Shift=    0.000
 RMSDP=7.66D-09 MaxDP=2.28D-07 DE=-1.14D-12 OVMax= 6.49D-07

 SCF Done:  E(UB3LYP) =  -208.435516010     A.U. after   22 cycles
             Convg  =    0.7655D-08             -V/T =  2.0096
 <Sx>= 0.0000 <Sy>= 0.0000 <Sz>= 0.5000 <S**2>= 0.7532 S= 0.5016
 <L.S>= 0.000000000000E+00
 KE= 2.064543075581D+02 PE=-7.196074473924D+02 EE= 1.883046841467D+02
 Annihilation of the first spin contaminant:
 S**2 before annihilation     0.7532,   after     0.7500
 Leave Link  502 at Mon Sep 24 14:18:41 2012, MaxMem= 1610612736 cpu:      19.7
 (Enter /group/hpc-share/gaussian/2009C/g09/l601.exe)
 Copying SCF densities to generalized density rwf, IOpCl= 1 IROHF=0.

 **********************************************************************

            Population analysis using the SCF density.

 **********************************************************************

 Orbital symmetries:
 Alpha Orbitals:
       Occupied  (A) (A) (A) (A) (A) (A) (A) (A) (A) (A) (A) (A)
                 (A) (A) (A) (A)
       Virtual   (A) (A) (A) (A) (A) (A) (A) (A) (A) (A) (A) (A)
                 (A) (A) (A) (A) (A) (A) (A) (A) (A) (A) (A) (A)
                 (A) (A) (A) (A) (A) (A) (A) (A) (A) (A) (A) (A)
                 (A) (A) (A) (A) (A) (A) (A) (A) (A) (A) (A) (A)
                 (A) (A) (A) (A)
 Beta  Orbitals:
       Occupied  (A) (A) (A) (A) (A) (A) (A) (A) (A) (A) (A) (A)
                 (A) (A) (A)
       Virtual   (A) (A) (A) (A) (A) (A) (A) (A) (A) (A) (A) (A)
                 (A) (A) (A) (A) (A) (A) (A) (A) (A) (A) (A) (A)
                 (A) (A) (A) (A) (A) (A) (A) (A) (A) (A) (A) (A)
                 (A) (A) (A) (A) (A) (A) (A) (A) (A) (A) (A) (A)
                 (A) (A) (A) (A) (A)
 The electronic state is 2-A.
 Alpha  occ. eigenvalues --  -19.19628 -14.42139 -10.24032 -10.24003  -1.05749
 Alpha  occ. eigenvalues --   -0.90145  -0.64572  -0.63679  -0.52439  -0.49449
 Alpha  occ. eigenvalues --   -0.41339  -0.39970  -0.38283  -0.37248  -0.27330
 Alpha  occ. eigenvalues --   -0.26717
 Alpha virt. eigenvalues --    0.06589   0.09831   0.10293   0.13468   0.14321
 Alpha virt. eigenvalues --    0.17925   0.20432   0.24825   0.45425   0.53709
 Alpha virt. eigenvalues --    0.54163   0.56728   0.60996   0.62421   0.71117
 Alpha virt. eigenvalues --    0.75095   0.77657   0.81855   0.82674   0.85910
 Alpha virt. eigenvalues --    0.89606   0.91128   0.93319   0.98506   1.11194
 Alpha virt. eigenvalues --    1.21969   1.23894   1.34484   1.44469   1.64158
 Alpha virt. eigenvalues --    1.68979   1.79458   1.82871   1.84182   1.87801
 Alpha virt. eigenvalues --    1.88000   1.92176   1.96972   2.08661   2.18626
 Alpha virt. eigenvalues --    2.24701   2.33793   2.46950   2.50856   2.57664
 Alpha virt. eigenvalues --    2.60086   2.78910   2.87533   3.46984   3.95816
 Alpha virt. eigenvalues --    4.17753   4.33667
  Beta  occ. eigenvalues --  -19.17608 -14.41756 -10.23944 -10.23916  -1.03570
  Beta  occ. eigenvalues --   -0.86951  -0.64312  -0.62450  -0.51709  -0.47962
  Beta  occ. eigenvalues --   -0.40880  -0.39765  -0.36361  -0.31002  -0.24883
  Beta virt. eigenvalues --   -0.12183   0.07692   0.10284   0.10529   0.13857
  Beta virt. eigenvalues --    0.14555   0.18795   0.20453   0.24967   0.45755
  Beta virt. eigenvalues --    0.54022   0.54845   0.57190   0.61224   0.63245
  Beta virt. eigenvalues --    0.71946   0.76892   0.77869   0.82138   0.83007
  Beta virt. eigenvalues --    0.86390   0.90428   0.91214   0.93819   1.04406
  Beta virt. eigenvalues --    1.11812   1.23072   1.24215   1.35538   1.45573
  Beta virt. eigenvalues --    1.64876   1.69722   1.83123   1.84269   1.84730
  Beta virt. eigenvalues --    1.89714   1.90644   1.93701   1.98880   2.09293
  Beta virt. eigenvalues --    2.19500   2.25372   2.34288   2.47114   2.51938
  Beta virt. eigenvalues --    2.57980   2.61785   2.79385   2.89143   3.49980
  Beta virt. eigenvalues --    3.96900   4.18014   4.33885
          Condensed to atoms (all electrons):
              1          2          3          4          5          6
     1  C    5.102877   0.245384   0.174932  -0.033579   0.372758   0.359961
     2  C    0.245384   5.102915   0.174914  -0.033563  -0.019014  -0.015562
     3  N    0.174932   0.174914   6.703394   0.129169  -0.020259  -0.027089
     4  O   -0.033579  -0.033563   0.129169   8.202613  -0.000580   0.003025
     5  H    0.372758  -0.019014  -0.020259  -0.000580   0.508361  -0.029268
     6  H    0.359961  -0.015562  -0.027089   0.003025  -0.029268   0.536449
     7  H   -0.015564   0.359957  -0.027078   0.003023   0.001548  -0.004821
     8  H   -0.019012   0.372752  -0.020252  -0.000577  -0.004182   0.001548
              7          8
     1  C   -0.015564  -0.019012
     2  C    0.359957   0.372752
     3  N   -0.027078  -0.020252
     4  O    0.003023  -0.000577
     5  H    0.001548  -0.004182
     6  H   -0.004821   0.001548
     7  H    0.536432  -0.029265
     8  H   -0.029265   0.508351
 Mulliken atomic charges:
              1
     1  C   -0.187757
     2  C   -0.187783
     3  N   -0.087731
     4  O   -0.269530
     5  H    0.190637
     6  H    0.175758
     7  H    0.175767
     8  H    0.190638
 Sum of Mulliken atomic charges =   0.00000
 Mulliken charges with hydrogens summed into heavy atoms:
              1
     1  C    0.178638
     2  C    0.178623
     3  N   -0.087731
     4  O   -0.269530
 Sum of Mulliken charges with hydrogens summed into heavy atoms =   0.00000
          Atomic-Atomic Spin Densities.
              1          2          3          4          5          6
     1  C    0.053626   0.002930  -0.006954  -0.006211  -0.003903   0.003483
     2  C    0.002930   0.053621  -0.006962  -0.006201   0.001291   0.000440
     3  N   -0.006954  -0.006962   0.210244  -0.061492  -0.000979   0.000641
     4  O   -0.006211  -0.006201  -0.061492   0.853428   0.003644  -0.000200
     5  H   -0.003903   0.001291  -0.000979   0.003644  -0.001729   0.000256
     6  H    0.003483   0.000440   0.000641  -0.000200   0.000256  -0.008272
     7  H    0.000440   0.003484   0.000640  -0.000200   0.000051  -0.000352
     8  H    0.001290  -0.003900  -0.000978   0.003641   0.000332   0.000051
              7          8
     1  C    0.000440   0.001290
     2  C    0.003484  -0.003900
     3  N    0.000640  -0.000978
     4  O   -0.000200   0.003641
     5  H    0.000051   0.000332
     6  H   -0.000352   0.000051
     7  H   -0.008268   0.000256
     8  H    0.000256  -0.001727
 Mulliken atomic spin densities:
              1
     1  C    0.044701
     2  C    0.044704
     3  N    0.134160
     4  O    0.786408
     5  H   -0.001036
     6  H   -0.003952
     7  H   -0.003951
     8  H   -0.001036
 Sum of Mulliken atomic spin densities =   1.00000
 Electronic spatial extent (au):  <R**2>=            226.0189
 Charge=              0.0000 electrons
 Dipole moment (field-independent basis, Debye):
    X=             -2.8425    Y=              0.0003    Z=              0.7970  Tot=              2.9521
 Quadrupole moment (field-independent basis, Debye-Ang):
   XX=            -25.2126   YY=            -21.8584   ZZ=            -23.3244
   XY=              0.0007   XZ=              0.5517   YZ=             -0.0002
 Traceless Quadrupole moment (field-independent basis, Debye-Ang):
   XX=             -1.7475   YY=              1.6068   ZZ=              0.1407
   XY=              0.0007   XZ=              0.5517   YZ=             -0.0002
 Octapole moment (field-independent basis, Debye-Ang**2):
  XXX=              0.6500  YYY=              0.0008  ZZZ=              2.9704  XYY=             -1.1906
  XXY=             -0.0011  XXZ=             -2.5498  XZZ=              1.3047  YZZ=              0.0000
  YYZ=              0.8432  XYZ=              0.0007
 Hexadecapole moment (field-independent basis, Debye-Ang**3):
 XXXX=           -152.4122 YYYY=            -79.7561 ZZZZ=            -46.2458 XXXY=              0.0019
 XXXZ=              2.8051 YYYX=             -0.0008 YYYZ=             -0.0010 ZZZX=              1.9393
 ZZZY=             -0.0005 XXYY=            -36.3939 XXZZ=            -31.5276 YYZZ=            -18.9807
 XXYZ=              0.0005 YYXZ=              1.2069 ZZXY=              0.0005
 N-N= 1.164129396779D+02 E-N=-1.071860313272D+03  KE= 3.082947594646D+02
                          Isotropic Fermi Contact Couplings
        Atom                 a.u.       MegaHertz       Gauss      10(-4) cm-1
     1  C(13)              0.01275      14.32834       5.11271       4.77942
     2  C(13)              0.01273      14.31287       5.10719       4.77426
     3  N(14)              0.15780      50.98602      18.19308      17.00711
     4  O(17)              0.07540     -45.70797     -16.30974     -15.24654
     5  H(1)              -0.00138      -6.16179      -2.19868      -2.05535
     6  H(1)              -0.00102      -4.57316      -1.63182      -1.52544
     7  H(1)              -0.00102      -4.56765      -1.62985      -1.52360
     8  H(1)              -0.00138      -6.16096      -2.19838      -2.05507
 --------------------------------------------------------
       Center         ----  Spin Dipole Couplings  ----
                      3XX-RR        3YY-RR        3ZZ-RR
 --------------------------------------------------------
     1   Atom        0.051354     -0.030081     -0.021273
     2   Atom        0.051320     -0.030065     -0.021255
     3   Atom       -0.203159     -0.207765      0.410924
     4   Atom       -0.527594     -1.507053      2.034647
     5   Atom        0.002208     -0.002771      0.000563
     6   Atom        0.008760     -0.002583     -0.006177
     7   Atom        0.008765     -0.002589     -0.006177
     8   Atom        0.002211     -0.002773      0.000563
 --------------------------------------------------------
                        XY            XZ            YZ
 --------------------------------------------------------
     1   Atom        0.011639     -0.039034     -0.009154
     2   Atom       -0.011673     -0.039041      0.009178
     3   Atom       -0.000006     -0.081790      0.000082
     4   Atom       -0.000433     -1.821784      0.000848
     5   Atom       -0.009395     -0.006287      0.008340
     6   Atom       -0.007990      0.003434     -0.002080
     7   Atom        0.007986      0.003434      0.002078
     8   Atom        0.009388     -0.006287     -0.008336
 --------------------------------------------------------


 ---------------------------------------------------------------------------------
              Anisotropic Spin Dipole Couplings in Principal Axis System
 ---------------------------------------------------------------------------------

       Atom             a.u.   MegaHertz   Gauss  10(-4) cm-1        Axes

              Baa    -0.0400    -5.370    -1.916    -1.791  0.3103  0.4215  0.8521
     1 C(13)  Bbb    -0.0304    -4.077    -1.455    -1.360 -0.2889  0.8958 -0.3379
              Bcc     0.0704     9.447     3.371     3.151  0.9057  0.1413 -0.3997
 
              Baa    -0.0400    -5.370    -1.916    -1.791  0.3103 -0.4218  0.8519
     2 C(13)  Bbb    -0.0304    -4.076    -1.454    -1.360  0.2895  0.8955  0.3380
              Bcc     0.0704     9.446     3.370     3.151  0.9055 -0.1418 -0.3999
 
              Baa    -0.2139    -8.248    -2.943    -2.751  0.9915 -0.0007  0.1298
     3 N(14)  Bbb    -0.2078    -8.013    -2.859    -2.673  0.0007  1.0000  0.0000
              Bcc     0.4216    16.261     5.802     5.424 -0.1298  0.0001  0.9915
 
              Baa    -1.5071   109.049    38.912    36.375 -0.0001  1.0000 -0.0003
     4 O(17)  Bbb    -1.4736   106.630    38.048    35.568  0.8875  0.0002  0.4609
              Bcc     2.9807  -215.679   -76.960   -71.943 -0.4609  0.0002  0.8875
 
              Baa    -0.0111    -5.943    -2.120    -1.982  0.4103  0.8323 -0.3728
     5 H(1)   Bbb    -0.0050    -2.643    -0.943    -0.882  0.6647  0.0069  0.7470
              Bcc     0.0161     8.586     3.064     2.864  0.6243 -0.5543 -0.5504
 
              Baa    -0.0071    -3.813    -1.361    -1.272  0.0900  0.5391  0.8374
     6 H(1)   Bbb    -0.0065    -3.493    -1.247    -1.165  0.4852  0.7105 -0.5096
              Bcc     0.0137     7.307     2.607     2.437  0.8697 -0.4522  0.1976
 
              Baa    -0.0071    -3.813    -1.361    -1.272  0.0900 -0.5395  0.8372
     7 H(1)   Bbb    -0.0065    -3.493    -1.246    -1.165 -0.4849  0.7105  0.5100
              Bcc     0.0137     7.306     2.607     2.437  0.8699  0.4519  0.1976
 
              Baa    -0.0111    -5.939    -2.119    -1.981 -0.4100  0.8324  0.3729
     8 H(1)   Bbb    -0.0050    -2.643    -0.943    -0.882  0.6648 -0.0072  0.7469
              Bcc     0.0161     8.582     3.062     2.863  0.6244  0.5542 -0.5505
 

 ---------------------------------------------------------------------------------

 No NMR shielding tensors so no spin-rotation constants.
 Leave Link  601 at Mon Sep 24 14:18:41 2012, MaxMem= 1610612736 cpu:       1.9
 (Enter /group/hpc-share/gaussian/2009C/g09/l607.exe)
 ******************************Gaussian NBO Version 3.1******************************
             N A T U R A L   A T O M I C   O R B I T A L   A N D
          N A T U R A L   B O N D   O R B I T A L   A N A L Y S I S
 ******************************Gaussian NBO Version 3.1******************************

       /RESON  / : Allow strongly delocalized NBO set
       /ARCHIVE/ : Write the archive file to LFN 47
       /FILE   / : Set to PILE                                                

 Analyzing the SCF density

 Job title:                                                                 

 Storage needed:     14228 in NPA,     18779 in NBO (1610612336 available)


 NATURAL POPULATIONS:  Natural atomic orbital occupancies 
                                                          
   NAO  Atom  No  lang   Type(AO)    Occupancy
 --------------------------------------------
     1    C    1  S      Cor( 1S)     1.99933
     2    C    1  S      Val( 2S)     1.05803
     3    C    1  S      Ryd( 3S)     0.00203
     4    C    1  S      Ryd( 4S)     0.00002
     5    C    1  px     Val( 2p)     1.03335
     6    C    1  px     Ryd( 3p)     0.00222
     7    C    1  py     Val( 2p)     1.04885
     8    C    1  py     Ryd( 3p)     0.00267
     9    C    1  pz     Val( 2p)     1.13741
    10    C    1  pz     Ryd( 3p)     0.00278
    11    C    1  dxy    Ryd( 3d)     0.00137
    12    C    1  dxz    Ryd( 3d)     0.00159
    13    C    1  dyz    Ryd( 3d)     0.00108
    14    C    1  dx2y2  Ryd( 3d)     0.00096
    15    C    1  dz2    Ryd( 3d)     0.00087

    16    C    2  S      Cor( 1S)     1.99933
    17    C    2  S      Val( 2S)     1.05804
    18    C    2  S      Ryd( 3S)     0.00203
    19    C    2  S      Ryd( 4S)     0.00002
    20    C    2  px     Val( 2p)     1.03331
    21    C    2  px     Ryd( 3p)     0.00222
    22    C    2  py     Val( 2p)     1.04889
    23    C    2  py     Ryd( 3p)     0.00267
    24    C    2  pz     Val( 2p)     1.13741
    25    C    2  pz     Ryd( 3p)     0.00277
    26    C    2  dxy    Ryd( 3d)     0.00137
    27    C    2  dxz    Ryd( 3d)     0.00159
    28    C    2  dyz    Ryd( 3d)     0.00108
    29    C    2  dx2y2  Ryd( 3d)     0.00096
    30    C    2  dz2    Ryd( 3d)     0.00087

    31    N    3  S      Cor( 1S)     1.99938
    32    N    3  S      Val( 2S)     1.45280
    33    N    3  S      Ryd( 3S)     0.00189
    34    N    3  S      Ryd( 4S)     0.00003
    35    N    3  px     Val( 2p)     0.95547
    36    N    3  px     Ryd( 3p)     0.00608
    37    N    3  py     Val( 2p)     1.29734
    38    N    3  py     Ryd( 3p)     0.00122
    39    N    3  pz     Val( 2p)     1.39717
    40    N    3  pz     Ryd( 3p)     0.00513
    41    N    3  dxy    Ryd( 3d)     0.00182
    42    N    3  dxz    Ryd( 3d)     0.00258
    43    N    3  dyz    Ryd( 3d)     0.00167
    44    N    3  dx2y2  Ryd( 3d)     0.00116
    45    N    3  dz2    Ryd( 3d)     0.00241

    46    O    4  S      Cor( 1S)     1.99994
    47    O    4  S      Val( 2S)     1.86405
    48    O    4  S      Ryd( 3S)     0.00227
    49    O    4  S      Ryd( 4S)     0.00002
    50    O    4  px     Val( 2p)     1.24479
    51    O    4  px     Ryd( 3p)     0.00071
    52    O    4  py     Val( 2p)     1.97049
    53    O    4  py     Ryd( 3p)     0.00141
    54    O    4  pz     Val( 2p)     1.16204
    55    O    4  pz     Ryd( 3p)     0.00084
    56    O    4  dxy    Ryd( 3d)     0.00089
    57    O    4  dxz    Ryd( 3d)     0.00142
    58    O    4  dyz    Ryd( 3d)     0.00023
    59    O    4  dx2y2  Ryd( 3d)     0.00108
    60    O    4  dz2    Ryd( 3d)     0.00070

    61    H    5  S      Val( 1S)     0.75451
    62    H    5  S      Ryd( 2S)     0.00173

    63    H    6  S      Val( 1S)     0.76173
    64    H    6  S      Ryd( 2S)     0.00097

    65    H    7  S      Val( 1S)     0.76172
    66    H    7  S      Ryd( 2S)     0.00097

    67    H    8  S      Val( 1S)     0.75451
    68    H    8  S      Ryd( 2S)     0.00173


 Summary of Natural Population Analysis:                  
                                                          
                                       Natural Population 
                Natural  -----------------------------------------------
    Atom  No    Charge         Core      Valence    Rydberg      Total
 -----------------------------------------------------------------------
      C    1   -0.29255      1.99933     4.27764    0.01558     6.29255
      C    2   -0.29256      1.99933     4.27765    0.01558     6.29256
      N    3   -0.12615      1.99938     5.10278    0.02399     7.12615
      O    4   -0.25087      1.99994     6.24136    0.00956     8.25087
      H    5    0.24377      0.00000     0.75451    0.00173     0.75623
      H    6    0.23730      0.00000     0.76173    0.00097     0.76270
      H    7    0.23731      0.00000     0.76172    0.00097     0.76269
      H    8    0.24376      0.00000     0.75451    0.00173     0.75624
 =======================================================================
   * Total *    0.00000      7.99798    22.93191    0.07011    31.00000

                                 Natural Population      
 --------------------------------------------------------
   Core                       7.99798 ( 99.9748% of   8)
   Valence                   22.93191 ( 99.7040% of  23)
   Natural Minimal Basis     30.92989 ( 99.7739% of  31)
   Natural Rydberg Basis      0.07011 (  0.2261% of  31)
 --------------------------------------------------------

    Atom  No          Natural Electron Configuration
 ----------------------------------------------------------------------------
      C    1      [core]2S( 1.06)2p( 3.22)3p( 0.01)3d( 0.01)
      C    2      [core]2S( 1.06)2p( 3.22)3p( 0.01)3d( 0.01)
      N    3      [core]2S( 1.45)2p( 3.65)3p( 0.01)3d( 0.01)
      O    4      [core]2S( 1.86)2p( 4.38)
      H    5            1S( 0.75)
      H    6            1S( 0.76)
      H    7            1S( 0.76)
      H    8            1S( 0.75)


 ***************************************************
 *******         Alpha spin orbitals         *******
 ***************************************************


 NATURAL POPULATIONS:  Natural atomic orbital occupancies 
                                                          
   NAO  Atom  No  lang   Type(AO)    Occupancy      Energy
 ----------------------------------------------------------
     1    C    1  S      Cor( 1S)     0.99967     -10.11717
     2    C    1  S      Val( 2S)     0.52949      -0.28066
     3    C    1  S      Ryd( 3S)     0.00114       1.05902
     4    C    1  S      Ryd( 4S)     0.00001       4.19730
     5    C    1  px     Val( 2p)     0.52541      -0.11474
     6    C    1  px     Ryd( 3p)     0.00121       0.63787
     7    C    1  py     Val( 2p)     0.52835      -0.10036
     8    C    1  py     Ryd( 3p)     0.00156       0.50636
     9    C    1  pz     Val( 2p)     0.57245      -0.10412
    10    C    1  pz     Ryd( 3p)     0.00136       0.71165
    11    C    1  dxy    Ryd( 3d)     0.00075       2.07179
    12    C    1  dxz    Ryd( 3d)     0.00078       2.07839
    13    C    1  dyz    Ryd( 3d)     0.00055       2.09632
    14    C    1  dx2y2  Ryd( 3d)     0.00047       2.15580
    15    C    1  dz2    Ryd( 3d)     0.00042       1.96478

    16    C    2  S      Cor( 1S)     0.99967     -10.11718
    17    C    2  S      Val( 2S)     0.52950      -0.28068
    18    C    2  S      Ryd( 3S)     0.00114       1.05897
    19    C    2  S      Ryd( 4S)     0.00001       4.19727
    20    C    2  px     Val( 2p)     0.52539      -0.11473
    21    C    2  px     Ryd( 3p)     0.00121       0.63783
    22    C    2  py     Val( 2p)     0.52837      -0.10037
    23    C    2  py     Ryd( 3p)     0.00156       0.50636
    24    C    2  pz     Val( 2p)     0.57246      -0.10412
    25    C    2  pz     Ryd( 3p)     0.00136       0.71167
    26    C    2  dxy    Ryd( 3d)     0.00075       2.07165
    27    C    2  dxz    Ryd( 3d)     0.00078       2.07843
    28    C    2  dyz    Ryd( 3d)     0.00055       2.09622
    29    C    2  dx2y2  Ryd( 3d)     0.00047       2.15592
    30    C    2  dz2    Ryd( 3d)     0.00042       1.96477

    31    N    3  S      Cor( 1S)     0.99973     -14.28519
    32    N    3  S      Val( 2S)     0.74166      -0.60966
    33    N    3  S      Ryd( 3S)     0.00106       1.49077
    34    N    3  S      Ryd( 4S)     0.00002       3.79245
    35    N    3  px     Val( 2p)     0.46901      -0.20258
    36    N    3  px     Ryd( 3p)     0.00294       0.81373
    37    N    3  py     Val( 2p)     0.64812      -0.21175
    38    N    3  py     Ryd( 3p)     0.00059       0.82022
    39    N    3  pz     Val( 2p)     0.76463      -0.26335
    40    N    3  pz     Ryd( 3p)     0.00233       0.77836
    41    N    3  dxy    Ryd( 3d)     0.00089       2.18359
    42    N    3  dxz    Ryd( 3d)     0.00134       2.39044
    43    N    3  dyz    Ryd( 3d)     0.00078       2.07616
    44    N    3  dx2y2  Ryd( 3d)     0.00060       2.14278
    45    N    3  dz2    Ryd( 3d)     0.00095       1.93051

    46    O    4  S      Cor( 1S)     0.99997     -19.03065
    47    O    4  S      Val( 2S)     0.93551      -0.97468
    48    O    4  S      Ryd( 3S)     0.00115       1.22918
    49    O    4  S      Ryd( 4S)     0.00001       3.38837
    50    O    4  px     Val( 2p)     0.71571      -0.27543
    51    O    4  px     Ryd( 3p)     0.00047       1.05049
    52    O    4  py     Val( 2p)     0.98615      -0.29287
    53    O    4  py     Ryd( 3p)     0.00060       1.01043
    54    O    4  pz     Val( 2p)     0.88127      -0.32546
    55    O    4  pz     Ryd( 3p)     0.00052       0.97306
    56    O    4  dxy    Ryd( 3d)     0.00044       1.98392
    57    O    4  dxz    Ryd( 3d)     0.00070       2.19708
    58    O    4  dyz    Ryd( 3d)     0.00012       1.87988
    59    O    4  dx2y2  Ryd( 3d)     0.00057       2.15461
    60    O    4  dz2    Ryd( 3d)     0.00037       1.94622

    61    H    5  S      Val( 1S)     0.37636       0.07581
    62    H    5  S      Ryd( 2S)     0.00101       0.59507

    63    H    6  S      Val( 1S)     0.37948       0.07396
    64    H    6  S      Ryd( 2S)     0.00044       0.58214

    65    H    7  S      Val( 1S)     0.37948       0.07395
    66    H    7  S      Ryd( 2S)     0.00044       0.58214

    67    H    8  S      Val( 1S)     0.37636       0.07581
    68    H    8  S      Ryd( 2S)     0.00101       0.59504


 Summary of Natural Population Analysis:                  
                                                          
                                       Natural Population 
                Natural  -----------------------------------------------
    Atom  No    Charge         Core      Valence    Rydberg      Total
 -----------------------------------------------------------------------
      C    1   -0.16361      0.99967     2.15570    0.00824     3.16361
      C    2   -0.16361      0.99967     2.15571    0.00824     3.16361
      N    3   -0.13463      0.99973     2.62342    0.01149     3.63463
      O    4   -0.52356      0.99997     3.51865    0.00495     4.52356
      H    5    0.12263      0.00000     0.37636    0.00101     0.37737
      H    6    0.12008      0.00000     0.37948    0.00044     0.37992
      H    7    0.12008      0.00000     0.37948    0.00044     0.37992
      H    8    0.12263      0.00000     0.37636    0.00101     0.37737
 =======================================================================
   * Total *   -0.50000      3.99904    11.96516    0.03580    16.00000

                                 Natural Population      
 --------------------------------------------------------
   Core                       3.99904 ( 99.9760% of   4)
   Valence                   11.96516 ( 99.7097% of  12)
   Natural Minimal Basis     15.96420 ( 99.7762% of  16)
   Natural Rydberg Basis      0.03580 (  0.2238% of  16)
 --------------------------------------------------------

    Atom  No          Natural Electron Configuration
 ----------------------------------------------------------------------------
      C    1      [core]2S( 0.53)2p( 1.63)
      C    2      [core]2S( 0.53)2p( 1.63)
      N    3      [core]2S( 0.74)2p( 1.88)3p( 0.01)
      O    4      [core]2S( 0.94)2p( 2.58)
      H    5            1S( 0.38)
      H    6            1S( 0.38)
      H    7            1S( 0.38)
      H    8            1S( 0.38)


 NATURAL BOND ORBITAL ANALYSIS, alpha spin orbitals:

                       Occupancies       Lewis Structure    Low   High
           Occ.    -------------------  -----------------   occ   occ
  Cycle   Thresh.   Lewis   Non-Lewis     CR  BD  3C  LP    (L)   (NL)   Dev
 =============================================================================
   1(1)    0.90    15.89563   0.10437      4   8   0   4     0      0    0.01
 -----------------------------------------------------------------------------

 Structure accepted: No low occupancy Lewis orbitals

 --------------------------------------------------------
   Core                      3.99904 ( 99.976% of   4)
   Valence Lewis            11.89659 ( 99.138% of  12)
  ==================       ============================
   Total Lewis              15.89563 ( 99.348% of  16)
  -----------------------------------------------------
   Valence non-Lewis         0.08462 (  0.529% of  16)
   Rydberg non-Lewis         0.01976 (  0.123% of  16)
  ==================       ============================
   Total non-Lewis           0.10437 (  0.652% of  16)
 --------------------------------------------------------


       (Occupancy)   Bond orbital/ Coefficients/ Hybrids
 ---------------------------------------------------------------------------------
     1. (0.98777) BD ( 1) C   1 - C   2  
                ( 50.00%)   0.7071* C   1 s( 22.95%)p 3.35( 76.98%)d 0.00(  0.07%)
                                            0.0001  0.4790 -0.0103 -0.0003 -0.3060
                                           -0.0016 -0.8014  0.0003  0.1843 -0.0025
                                            0.0035 -0.0005 -0.0004 -0.0224 -0.0117
                ( 50.00%)   0.7071* C   2 s( 22.95%)p 3.35( 76.98%)d 0.00(  0.07%)
                                            0.0001  0.4790 -0.0103 -0.0003 -0.3057
                                           -0.0016  0.8015 -0.0003  0.1842 -0.0025
                                           -0.0035 -0.0005  0.0004 -0.0224 -0.0117
     2. (0.98760) BD ( 1) C   1 - N   3  
                ( 40.94%)   0.6398* C   1 s( 17.25%)p 4.79( 82.56%)d 0.01(  0.19%)
                                            0.0003  0.4149 -0.0172 -0.0021  0.7339
                                            0.0167 -0.1504  0.0051 -0.5135 -0.0215
                                           -0.0251 -0.0283  0.0167  0.0124 -0.0054
                ( 59.06%)   0.7685* N   3 s( 19.52%)p 4.12( 80.34%)d 0.01(  0.13%)
                                            0.0001  0.4418 -0.0018  0.0008 -0.4319
                                            0.0086  0.7064  0.0170  0.3419 -0.0255
                                           -0.0166 -0.0230  0.0219  0.0049  0.0047
     3. (0.99426) BD ( 1) C   1 - H   5  
                ( 62.60%)   0.7912* C   1 s( 29.90%)p 2.34( 70.05%)d 0.00(  0.05%)
                                           -0.0001  0.5466  0.0116  0.0007  0.2575
                                           -0.0200  0.3880  0.0160  0.6949 -0.0141
                                            0.0058  0.0149  0.0115  0.0001  0.0121
                ( 37.40%)   0.6115* H   5 s(100.00%)
                                            1.0000  0.0045
     4. (0.99373) BD ( 1) C   1 - H   6  
                ( 62.31%)   0.7894* C   1 s( 29.90%)p 2.34( 70.04%)d 0.00(  0.05%)
                                           -0.0002  0.5468  0.0050  0.0005 -0.5468
                                            0.0098  0.4281  0.0099 -0.4664  0.0210
                                           -0.0103  0.0175 -0.0104  0.0023  0.0034
                ( 37.69%)   0.6139* H   6 s(100.00%)
                                            1.0000  0.0038
     5. (0.98760) BD ( 1) C   2 - N   3  
                ( 40.94%)   0.6398* C   2 s( 17.24%)p 4.79( 82.57%)d 0.01(  0.19%)
                                            0.0003  0.4149 -0.0172 -0.0021  0.7340
                                            0.0167  0.1501 -0.0051 -0.5135 -0.0215
                                            0.0251 -0.0283 -0.0167  0.0124 -0.0054
                ( 59.06%)   0.7685* N   3 s( 19.52%)p 4.12( 80.35%)d 0.01(  0.13%)
                                            0.0001  0.4418 -0.0018  0.0008 -0.4320
                                            0.0086 -0.7063 -0.0170  0.3420 -0.0255
                                            0.0166 -0.0230 -0.0219  0.0049  0.0047
     6. (0.99373) BD ( 1) C   2 - H   7  
                ( 62.31%)   0.7894* C   2 s( 29.91%)p 2.34( 70.04%)d 0.00(  0.05%)
                                           -0.0002  0.5468  0.0050  0.0005 -0.5470
                                            0.0098 -0.4279 -0.0099 -0.4664  0.0210
                                            0.0103  0.0175  0.0104  0.0023  0.0034
                ( 37.69%)   0.6139* H   7 s(100.00%)
                                            1.0000  0.0038
     7. (0.99426) BD ( 1) C   2 - H   8  
                ( 62.60%)   0.7912* C   2 s( 29.90%)p 2.34( 70.05%)d 0.00(  0.05%)
                                           -0.0001  0.5467  0.0116  0.0007  0.2573
                                           -0.0200 -0.3881 -0.0160  0.6949 -0.0141
                                           -0.0058  0.0149 -0.0115  0.0001  0.0121
                ( 37.40%)   0.6115* H   8 s(100.00%)
                                            1.0000  0.0045
     8. (0.99381) BD ( 1) N   3 - O   4  
                ( 45.65%)   0.6756* N   3 s( 15.35%)p 5.50( 84.45%)d 0.01(  0.19%)
                                            0.0000  0.3909 -0.0265  0.0028  0.7809
                                            0.0570 -0.0001  0.0000  0.4810 -0.0108
                                            0.0000  0.0362  0.0000  0.0183  0.0168
                ( 54.35%)   0.7372* O   4 s( 13.59%)p 6.35( 86.26%)d 0.01(  0.15%)
                                            0.0000  0.3663 -0.0413  0.0005 -0.7832
                                            0.0108  0.0000  0.0000 -0.4988  0.0161
                                            0.0000  0.0270  0.0000  0.0282 -0.0026
     9. (0.99967) CR ( 1) C   1           s(100.00%)p 0.00(  0.00%)
                                            1.0000  0.0000  0.0000  0.0000 -0.0002
                                            0.0000  0.0002  0.0000  0.0001  0.0000
                                            0.0000  0.0000  0.0000  0.0000  0.0000
    10. (0.99967) CR ( 1) C   2           s(100.00%)p 0.00(  0.00%)
                                            1.0000  0.0000  0.0000  0.0000 -0.0002
                                            0.0000 -0.0002  0.0000  0.0001  0.0000
                                            0.0000  0.0000  0.0000  0.0000  0.0000
    11. (0.99973) CR ( 1) N   3           s(100.00%)p 0.00(  0.00%)
                                            1.0000  0.0000  0.0000  0.0000  0.0001
                                            0.0000  0.0000  0.0000 -0.0001  0.0000
                                            0.0000  0.0000  0.0000  0.0000  0.0000
    12. (0.99997) CR ( 1) O   4           s(100.00%)
                                            1.0000  0.0001  0.0000  0.0000  0.0001
                                            0.0000  0.0000  0.0000  0.0000  0.0000
                                            0.0000  0.0000  0.0000  0.0000  0.0000
    13. (0.98810) LP ( 1) N   3           s( 45.54%)p 1.19( 54.41%)d 0.00(  0.04%)
                                           -0.0001  0.6747  0.0112 -0.0018  0.1113
                                            0.0082 -0.0001  0.0000 -0.7287  0.0257
                                            0.0000  0.0078  0.0000 -0.0008 -0.0197
    14. (0.99701) LP ( 1) O   4           s( 64.75%)p 0.54( 35.22%)d 0.00(  0.02%)
                                           -0.0001  0.8047  0.0075 -0.0005 -0.0024
                                           -0.0061  0.0001  0.0000  0.5934 -0.0067
                                            0.0000 -0.0129  0.0000  0.0082  0.0018
    15. (0.99215) LP ( 2) O   4           s( 21.80%)p 3.59( 78.17%)d 0.00(  0.03%)
                                           -0.0001  0.4669 -0.0021 -0.0010  0.6199
                                           -0.0055 -0.0008  0.0000 -0.6304  0.0050
                                            0.0000  0.0032  0.0000 -0.0067  0.0159
    16. (0.98659) LP ( 3) O   4           s(  0.00%)p 1.00( 99.96%)d 0.00(  0.04%)
                                            0.0000  0.0003  0.0000  0.0000  0.0005
                                            0.0000  0.9998  0.0066 -0.0006  0.0000
                                           -0.0176  0.0000 -0.0094  0.0000  0.0000
    17. (0.00289) RY*( 1) C   1           s( 25.23%)p 2.16( 54.39%)d 0.81( 20.38%)
                                            0.0000 -0.0028  0.5015 -0.0266  0.0046
                                           -0.3472 -0.0189  0.6464 -0.0217  0.0688
                                            0.3241 -0.1909 -0.0740  0.1149  0.2090
    18. (0.00139) RY*( 2) C   1           s(  0.02%)p99.99( 82.51%)d99.99( 17.47%)
                                            0.0000 -0.0031 -0.0102  0.0103 -0.0252
                                           -0.5323  0.0073 -0.2154 -0.0253 -0.7028
                                            0.0795 -0.0119  0.3785 -0.1197  0.1031
    19. (0.00034) RY*( 3) C   1           s(  2.18%)p20.33( 44.30%)d24.56( 53.52%)
                                            0.0000  0.0040  0.1445 -0.0301  0.0117
                                           -0.2517 -0.0039 -0.3166 -0.0042  0.5284
                                           -0.2161 -0.1685  0.2324 -0.3827  0.5096
    20. (0.00025) RY*( 4) C   1           s( 18.45%)p 2.72( 50.20%)d 1.70( 31.35%)
                                            0.0000  0.0068  0.4245  0.0650 -0.0202
                                            0.5913  0.0039 -0.2530  0.0138 -0.2963
                                            0.0987 -0.4845  0.0725  0.0842  0.2380
    21. (0.00007) RY*( 5) C   1           s( 20.00%)p 1.68( 33.62%)d 2.32( 46.37%)
    22. (0.00005) RY*( 6) C   1           s( 23.18%)p 0.39(  9.13%)d 2.92( 67.69%)
    23. (0.00000) RY*( 7) C   1           s(  6.77%)p 1.07(  7.26%)d12.70( 85.97%)
    24. (0.00001) RY*( 8) C   1           s(  7.76%)p 1.06(  8.21%)d10.83( 84.03%)
    25. (0.00001) RY*( 9) C   1           s(  0.03%)p99.99(  9.94%)d99.99( 90.03%)
    26. (0.00000) RY*(10) C   1           s( 96.38%)p 0.01(  0.81%)d 0.03(  2.81%)
    27. (0.00289) RY*( 1) C   2           s( 25.23%)p 2.16( 54.39%)d 0.81( 20.37%)
                                            0.0000 -0.0028  0.5016 -0.0266  0.0046
                                           -0.3475  0.0189 -0.6462 -0.0217  0.0688
                                           -0.3241 -0.1908  0.0741  0.1146  0.2089
    28. (0.00139) RY*( 2) C   2           s(  0.02%)p99.99( 82.51%)d99.99( 17.47%)
                                            0.0000 -0.0031 -0.0102  0.0103 -0.0252
                                           -0.5321 -0.0073  0.2155 -0.0253 -0.7030
                                           -0.0794 -0.0121 -0.3786 -0.1198  0.1031
    29. (0.00034) RY*( 3) C   2           s(  2.18%)p20.26( 44.24%)d24.54( 53.58%)
                                            0.0000  0.0040  0.1446 -0.0301  0.0117
                                           -0.2511  0.0039  0.3168 -0.0042  0.5280
                                            0.2162 -0.1690 -0.2326 -0.3825  0.5099
    30. (0.00025) RY*( 4) C   2           s( 18.46%)p 2.72( 50.24%)d 1.70( 31.31%)
                                            0.0000  0.0068  0.4246  0.0651 -0.0202
                                            0.5916 -0.0039  0.2525  0.0138 -0.2966
                                           -0.0988 -0.4843 -0.0721  0.0845  0.2375
    31. (0.00007) RY*( 5) C   2           s( 20.00%)p 1.68( 33.64%)d 2.32( 46.36%)
    32. (0.00005) RY*( 6) C   2           s( 23.16%)p 0.39(  9.12%)d 2.92( 67.72%)
    33. (0.00000) RY*( 7) C   2           s(  6.76%)p 1.07(  7.26%)d12.71( 85.98%)
    34. (0.00001) RY*( 8) C   2           s(  7.77%)p 1.06(  8.20%)d10.82( 84.03%)
    35. (0.00001) RY*( 9) C   2           s(  0.03%)p99.99(  9.95%)d99.99( 90.02%)
    36. (0.00000) RY*(10) C   2           s( 96.38%)p 0.01(  0.81%)d 0.03(  2.81%)
    37. (0.00173) RY*( 1) N   3           s( 15.37%)p 3.92( 60.30%)d 1.58( 24.34%)
                                            0.0000 -0.0040  0.3917 -0.0131 -0.0186
                                            0.4618  0.0000  0.0001  0.0178  0.6238
                                            0.0000 -0.0200  0.0000 -0.3604  0.3363
    38. (0.00114) RY*( 2) N   3           s( 10.80%)p 7.86( 84.86%)d 0.40(  4.35%)
                                            0.0000  0.0360  0.3261  0.0174  0.0327
                                           -0.8666  0.0000  0.0002  0.0389  0.3083
                                           -0.0001  0.0020  0.0000 -0.0306  0.2062
    39. (0.00089) RY*( 3) N   3           s(  0.00%)p 1.00( 23.09%)d 3.33( 76.91%)
                                            0.0000  0.0000  0.0002  0.0000  0.0000
                                            0.0002 -0.0210  0.4800  0.0000 -0.0004
                                           -0.8188  0.0002 -0.3142 -0.0003  0.0000
    40. (0.00078) RY*( 4) N   3           s( 30.97%)p 1.09( 33.80%)d 1.14( 35.24%)
                                            0.0000  0.0019  0.5525  0.0662  0.0063
                                            0.0076  0.0000 -0.0001 -0.0036 -0.5813
                                            0.0006  0.3628  0.0002 -0.4670 -0.0518
    41. (0.00029) RY*( 5) N   3           s( 10.22%)p 0.07(  0.73%)d 8.71( 89.05%)
                                            0.0000  0.0018  0.2986  0.1142  0.0430
                                           -0.0109  0.0000  0.0001  0.0257  0.0683
                                            0.0000 -0.6584  0.0000 -0.1539 -0.6583
    42. (0.00007) RY*( 6) N   3           s(  0.00%)p 1.00( 57.74%)d 0.73( 42.26%)
    43. (0.00004) RY*( 7) N   3           s( 31.30%)p 0.10(  3.10%)d 2.10( 65.60%)
    44. (0.00002) RY*( 8) N   3           s(  0.00%)p 1.00( 19.32%)d 4.18( 80.68%)
    45. (0.00000) RY*( 9) N   3           s(  2.45%)p 7.08( 17.38%)d32.65( 80.16%)
    46. (0.00000) RY*(10) N   3           s( 98.96%)p 0.00(  0.12%)d 0.01(  0.92%)
    47. (0.00103) RY*( 1) O   4           s( 21.74%)p 2.77( 60.19%)d 0.83( 18.07%)
                                            0.0000  0.0009  0.4629  0.0564 -0.0190
                                           -0.5804  0.0000  0.0003 -0.0001  0.5145
                                            0.0002  0.2670  0.0000 -0.1670  0.2855
    48. (0.00071) RY*( 2) O   4           s(  0.00%)p 1.00( 77.50%)d 0.29( 22.50%)
                                            0.0000  0.0000  0.0000  0.0000  0.0000
                                            0.0002  0.0037  0.8803  0.0000 -0.0002
                                            0.4360 -0.0001  0.1868  0.0001 -0.0001
    49. (0.00008) RY*( 3) O   4           s( 14.81%)p 1.16( 17.14%)d 4.60( 68.05%)
    50. (0.00003) RY*( 4) O   4           s( 44.35%)p 0.94( 41.84%)d 0.31( 13.81%)
    51. (0.00000) RY*( 5) O   4           s( 21.47%)p 3.46( 74.22%)d 0.20(  4.32%)
    52. (0.00000) RY*( 6) O   4           s(  0.00%)p 1.00( 19.73%)d 4.07( 80.27%)
    53. (0.00000) RY*( 7) O   4           s( 96.61%)p 0.03(  3.20%)d 0.00(  0.18%)
    54. (0.00001) RY*( 8) O   4           s(  0.00%)p 1.00(  2.81%)d34.60( 97.19%)
    55. (0.00001) RY*( 9) O   4           s(  0.13%)p26.84(  3.37%)d99.99( 96.51%)
    56. (0.00000) RY*(10) O   4           s(  0.76%)p 0.50(  0.39%)d99.99( 98.85%)
    57. (0.00102) RY*( 1) H   5           s(100.00%)
                                           -0.0045  1.0000
    58. (0.00044) RY*( 1) H   6           s(100.00%)
                                           -0.0038  1.0000
    59. (0.00044) RY*( 1) H   7           s(100.00%)
                                           -0.0038  1.0000
    60. (0.00102) RY*( 1) H   8           s(100.00%)
                                           -0.0045  1.0000
    61. (0.00592) BD*( 1) C   1 - C   2  
                ( 50.00%)   0.7071* C   1 s( 22.95%)p 3.35( 76.98%)d 0.00(  0.07%)
                                            0.0001  0.4790 -0.0103 -0.0003 -0.3060
                                           -0.0016 -0.8014  0.0003  0.1843 -0.0025
                                            0.0035 -0.0005 -0.0004 -0.0224 -0.0117
                ( 50.00%)  -0.7071* C   2 s( 22.95%)p 3.35( 76.98%)d 0.00(  0.07%)
                                            0.0001  0.4790 -0.0103 -0.0003 -0.3057
                                           -0.0016  0.8015 -0.0003  0.1842 -0.0025
                                           -0.0035 -0.0005  0.0004 -0.0224 -0.0117
    62. (0.01780) BD*( 1) C   1 - N   3  
                ( 59.06%)   0.7685* C   1 s( 17.25%)p 4.79( 82.56%)d 0.01(  0.19%)
                                            0.0003  0.4149 -0.0172 -0.0021  0.7339
                                            0.0167 -0.1504  0.0051 -0.5135 -0.0215
                                           -0.0251 -0.0283  0.0167  0.0124 -0.0054
                ( 40.94%)  -0.6398* N   3 s( 19.52%)p 4.12( 80.34%)d 0.01(  0.13%)
                                            0.0001  0.4418 -0.0018  0.0008 -0.4319
                                            0.0086  0.7064  0.0170  0.3419 -0.0255
                                           -0.0166 -0.0230  0.0219  0.0049  0.0047
    63. (0.00721) BD*( 1) C   1 - H   5  
                ( 37.40%)   0.6115* C   1 s( 29.90%)p 2.34( 70.05%)d 0.00(  0.05%)
                                            0.0001 -0.5466 -0.0116 -0.0007 -0.2575
                                            0.0200 -0.3880 -0.0160 -0.6949  0.0141
                                           -0.0058 -0.0149 -0.0115 -0.0001 -0.0121
                ( 62.60%)  -0.7912* H   5 s(100.00%)
                                           -1.0000 -0.0045
    64. (0.00794) BD*( 1) C   1 - H   6  
                ( 37.69%)   0.6139* C   1 s( 29.90%)p 2.34( 70.04%)d 0.00(  0.05%)
                                            0.0002 -0.5468 -0.0050 -0.0005  0.5468
                                           -0.0098 -0.4281 -0.0099  0.4664 -0.0210
                                            0.0103 -0.0175  0.0104 -0.0023 -0.0034
                ( 62.31%)  -0.7894* H   6 s(100.00%)
                                           -1.0000 -0.0038
    65. (0.01781) BD*( 1) C   2 - N   3  
                ( 59.06%)   0.7685* C   2 s( 17.24%)p 4.79( 82.57%)d 0.01(  0.19%)
                                            0.0003  0.4149 -0.0172 -0.0021  0.7340
                                            0.0167  0.1501 -0.0051 -0.5135 -0.0215
                                            0.0251 -0.0283 -0.0167  0.0124 -0.0054
                ( 40.94%)  -0.6398* N   3 s( 19.52%)p 4.12( 80.35%)d 0.01(  0.13%)
                                            0.0001  0.4418 -0.0018  0.0008 -0.4320
                                            0.0086 -0.7063 -0.0170  0.3420 -0.0255
                                            0.0166 -0.0230 -0.0219  0.0049  0.0047
    66. (0.00794) BD*( 1) C   2 - H   7  
                ( 37.69%)   0.6139* C   2 s( 29.91%)p 2.34( 70.04%)d 0.00(  0.05%)
                                            0.0002 -0.5468 -0.0050 -0.0005  0.5470
                                           -0.0098  0.4279  0.0099  0.4664 -0.0210
                                           -0.0103 -0.0175 -0.0104 -0.0023 -0.0034
                ( 62.31%)  -0.7894* H   7 s(100.00%)
                                           -1.0000 -0.0038
    67. (0.00721) BD*( 1) C   2 - H   8  
                ( 37.40%)   0.6115* C   2 s( 29.90%)p 2.34( 70.05%)d 0.00(  0.05%)
                                            0.0001 -0.5467 -0.0116 -0.0007 -0.2573
                                            0.0200  0.3881  0.0160 -0.6949  0.0141
                                            0.0058 -0.0149  0.0115 -0.0001 -0.0121
                ( 62.60%)  -0.7912* H   8 s(100.00%)
                                           -1.0000 -0.0045
    68. (0.01277) BD*( 1) N   3 - O   4  
                ( 54.35%)   0.7372* N   3 s( 15.35%)p 5.50( 84.45%)d 0.01(  0.19%)
                                            0.0000  0.3909 -0.0265  0.0028  0.7809
                                            0.0570 -0.0001  0.0000  0.4810 -0.0108
                                            0.0000  0.0362  0.0000  0.0183  0.0168
                ( 45.65%)  -0.6756* O   4 s( 13.59%)p 6.35( 86.26%)d 0.01(  0.15%)
                                            0.0000  0.3663 -0.0413  0.0005 -0.7832
                                            0.0108  0.0000  0.0000 -0.4988  0.0161
                                            0.0000  0.0270  0.0000  0.0282 -0.0026


 NHO Directionality and "Bond Bending" (deviations from line of nuclear centers)

         [Thresholds for printing:  angular deviation  >  1.0 degree]
                                    hybrid p-character > 25.0%
                                    orbital occupancy  >  0.10e

                                Line of Centers        Hybrid 1              Hybrid 2
                                ---------------  -------------------   ------------------
                NBO               Theta   Phi    Theta   Phi    Dev    Theta   Phi    Dev
 ========================================================================================
     1. BD (   1) C   1 - C   2    90.0  270.0    78.0  249.0  24.0     78.0  111.0  24.0
     2. BD (   1) C   1 - N   3   120.8  324.0   125.0  349.0  21.4     69.3  120.3  23.5
     3. BD (   1) C   1 - H   5    34.1   55.0    34.5   59.5   2.6      --     --    --
     4. BD (   1) C   1 - H   6   124.3  141.2   122.7  140.8   1.6      --     --    --
     5. BD (   1) C   2 - N   3   120.8   36.0   125.0   10.9  21.4     69.3  239.7  23.5
     6. BD (   1) C   2 - H   7   124.3  218.8   122.7  219.2   1.6      --     --    --
     7. BD (   1) C   2 - H   8    34.1  305.0    34.5  300.4   2.6      --     --    --
[...]
     17  0.917858D-01  0.118180D+00
     18 -0.121146D+00 -0.918024D-01  0.180627D+00
     19  0.460469D-03  0.180790D-02  0.527520D-03  0.149187D+00
     20 -0.180772D-02  0.210124D-02 -0.979026D-03 -0.918154D-01  0.118230D+00
     21  0.527980D-03  0.978901D-03  0.160818D-02 -0.121121D+00  0.918211D-01
     22  0.101921D-02 -0.262097D-02 -0.600344D-04 -0.622249D-03 -0.100549D-01
     23  0.283300D-02 -0.255702D-02  0.632169D-03  0.184972D-02  0.984765D-02
     24  0.695148D-03 -0.251160D-02  0.527645D-03  0.176592D-02  0.839732D-02
               21            22            23            24 
     21  0.180583D+00
     22  0.129079D-01  0.548366D-01
     23 -0.138627D-01  0.211307D-01  0.116525D+00
     24 -0.114414D-01 -0.589783D-01 -0.126242D+00  0.278573D+00
 Force constants in internal coordinates: 
                1             2             3             4             5 
      1  0.243564D+00
      2  0.126527D-01  0.226340D+00
      3  0.338665D-02  0.654549D-02  0.360099D+00
      4  0.340876D-02  0.848081D-02  0.201153D-02  0.357263D+00
      5  0.126527D-01  0.206511D-01 -0.411150D-02 -0.227893D-02  0.226340D+00
      6  0.340879D-02 -0.227893D-02 -0.880887D-03  0.357903D-03  0.848077D-02
      7  0.338661D-02 -0.411149D-02  0.262461D-03 -0.880891D-03  0.654551D-02
      8  0.620273D-02  0.350777D-01  0.741350D-03 -0.169649D-03  0.350777D-01
      9  0.302078D-01  0.376409D-02  0.182464D-02 -0.537195D-02 -0.196455D-01
     10  0.110557D-04  0.773433D-02 -0.492001D-02  0.779432D-03 -0.798463D-02
     11  0.580741D-02  0.175871D-01  0.225305D-02 -0.277582D-02 -0.234445D-01
     12  0.235526D-01  0.150931D-01 -0.359308D-02  0.848976D-03 -0.246232D-01
     13 -0.188272D-01 -0.127402D-01  0.400504D-02  0.515219D-02  0.145638D-01
     14  0.112285D-04 -0.798482D-02  0.182023D-02 -0.179775D-02  0.773435D-02
     15  0.302077D-01 -0.196454D-01 -0.281270D-02  0.819370D-03  0.376408D-02
     16  0.235526D-01 -0.246232D-01 -0.167538D-02 -0.524526D-03  0.150930D-01
     17  0.580745D-02 -0.234446D-01  0.751937D-04 -0.120961D-02  0.175872D-01
     18 -0.188272D-01  0.145638D-01  0.585294D-03  0.496314D-03 -0.127401D-01
     19 -0.241877D-01  0.201133D-01 -0.392714D-02  0.860166D-03  0.231238D-01
     20 -0.241877D-01  0.231237D-01  0.774941D-03 -0.217795D-02  0.201134D-01
     21  0.177395D-01 -0.143491D-01  0.138038D-02  0.497030D-03 -0.143236D-01
     22  0.000000D+00  0.800380D-02  0.205250D-02  0.132351D-02 -0.800375D-02
     23  0.000000D+00 -0.802924D-02 -0.168339D-02 -0.214959D-02  0.802926D-02
     24 -0.177395D-01  0.143237D-01 -0.101128D-02 -0.132311D-02  0.143491D-01
     25 -0.104910D-01 -0.121678D-01 -0.227432D-02 -0.329303D-02  0.212270D-01
     26 -0.232240D-02  0.120690D-01  0.314038D-02  0.334200D-02 -0.220669D-01
     27  0.232238D-02  0.220669D-01 -0.696318D-03  0.629123D-03 -0.120690D-01
     28  0.104911D-01 -0.212271D-01 -0.194790D-02 -0.988468D-03  0.121678D-01
                6             7             8             9            10 
      6  0.357263D+00
      7  0.201156D-02  0.360098D+00
      8 -0.169645D-03  0.741343D-03  0.531295D+00
      9  0.819374D-03 -0.281270D-02  0.127256D-01  0.623571D-01
     10 -0.179775D-02  0.182023D-02 -0.159096D-01 -0.352216D-01  0.558535D-01
     11 -0.120959D-02  0.752060D-04 -0.168191D-01  0.970702D-02  0.315695D-02
     12 -0.524532D-03 -0.167540D-02  0.145348D-01  0.623760D-02  0.660725D-02
     13  0.496311D-03  0.585294D-03  0.106883D-02 -0.211925D-01 -0.173318D-01
     14  0.779428D-03 -0.492001D-02 -0.159097D-01  0.842389D-02 -0.897358D-02
     15 -0.537196D-02  0.182462D-02  0.127256D-01 -0.697998D-02  0.842389D-02
     16  0.848947D-03 -0.359310D-02  0.145349D-01  0.158199D-01 -0.167387D-01
     17 -0.277581D-02  0.225305D-02 -0.168191D-01 -0.163786D-01  0.137549D-01
     18  0.515221D-02  0.400506D-02  0.106883D-02 -0.272735D-03  0.433226D-03
     19 -0.217796D-02  0.774943D-03  0.367249D-01 -0.635330D-02 -0.280287D-04
     20  0.860157D-03 -0.392713D-02  0.367249D-01  0.410196D-01 -0.449799D-01
     21  0.132313D-02  0.101129D-02 -0.389672D-02  0.982166D-02 -0.503836D-02
     22 -0.132351D-02 -0.205250D-02  0.000000D+00  0.756796D-02 -0.498850D-02
     23  0.214960D-02  0.168340D-02  0.000000D+00  0.365877D-02 -0.631811D-02
     24 -0.497037D-03 -0.138038D-02  0.389670D-02  0.140506D-02 -0.626825D-02
     25  0.988459D-03  0.194791D-02 -0.537265D-02  0.463228D-02  0.104203D-01
     26 -0.629115D-03  0.696323D-03 -0.683716D-02 -0.110145D-01 -0.716729D-02
     27 -0.334200D-02 -0.314039D-02  0.683715D-02 -0.505638D-02  0.786157D-02
     28  0.329304D-02  0.227433D-02  0.537269D-02 -0.647152D-02  0.440549D-02
               11            12            13            14            15 
     11  0.524466D-01
     12 -0.318964D-01  0.547069D-01
     13 -0.145183D-01 -0.146684D-01  0.368217D-01
     14  0.137549D-01 -0.167387D-01  0.433230D-03  0.558534D-01
     15 -0.163786D-01  0.158199D-01 -0.272736D-03 -0.352215D-01  0.623570D-01
     16 -0.382654D-01  0.347943D-01  0.441792D-03  0.660723D-02  0.623763D-02
     17  0.317027D-01 -0.382654D-01  0.181432D-02  0.315697D-02  0.970704D-02
     18  0.181431D-02  0.441804D-03  0.901622D-05 -0.173318D-01 -0.211925D-01
     19 -0.306947D-01  0.247449D-01  0.357984D-02 -0.449800D-01  0.410196D-01
     20 -0.155299D-01  0.109117D-01  0.199127D-02 -0.280705D-04 -0.635326D-02
     21 -0.450257D-02 -0.427323D-02  0.389073D-02  0.626829D-02 -0.140510D-02
     22 -0.328831D-02 -0.354257D-02  0.354499D-02  0.498847D-02 -0.756794D-02
     23  0.314930D-02  0.379170D-02 -0.353894D-02  0.631813D-02 -0.365879D-02
     24  0.436356D-02  0.452236D-02 -0.388468D-02  0.503832D-02 -0.982163D-02
     25 -0.719028D-02  0.241271D-02 -0.119309D-01 -0.440549D-02  0.647153D-02
     26 -0.362909D-02  0.845544D-02  0.131140D-01 -0.786159D-02  0.505639D-02
     27  0.518907D-02  0.254673D-03 -0.152141D-02  0.716733D-02  0.110144D-01
     28 -0.822664D-03 -0.421981D-02  0.178586D-02 -0.104203D-01 -0.463227D-02
               16            17            18            19            20 
     16  0.547068D-01
     17 -0.318964D-01  0.524466D-01
     18 -0.146684D-01 -0.145183D-01  0.368218D-01
     19  0.109117D-01 -0.155299D-01  0.199127D-02  0.663314D-01
     20  0.247450D-01 -0.306947D-01  0.357984D-02  0.186877D-01  0.663314D-01
     21 -0.452233D-02 -0.436355D-02  0.388467D-02 -0.861408D-02  0.813458D-03
     22  0.354254D-02  0.328832D-02 -0.354499D-02 -0.548347D-02  0.548348D-02
     23 -0.379166D-02 -0.314934D-02  0.353894D-02 -0.394404D-02  0.394406D-02
     24  0.427322D-02  0.450254D-02 -0.389072D-02 -0.813436D-03  0.861408D-02
     25  0.421979D-02  0.822676D-03 -0.178586D-02  0.121090D-01 -0.774820D-02
     26 -0.254661D-03 -0.518908D-02  0.152141D-02  0.983681D-02 -0.109048D-01
     27 -0.845543D-02  0.362906D-02 -0.131140D-01  0.109048D-01 -0.983680D-02
     28 -0.241273D-02  0.719031D-02  0.119309D-01  0.774824D-02 -0.121090D-01
               21            22            23            24            25 
     21  0.246994D-01
     22  0.574601D-02  0.193210D-01
     23  0.581812D-02 -0.782895D-02  0.194652D-01
     24 -0.131353D-01  0.574602D-02  0.581813D-02  0.246995D-01
     25  0.142492D-02  0.134623D-02 -0.138155D-02 -0.146025D-02  0.289623D-01
     26 -0.422064D-02 -0.209905D-02  0.223401D-02  0.435560D-02  0.821139D-04
     27  0.435559D-02 -0.209904D-02  0.223402D-02 -0.422062D-02  0.366093D-02
     28 -0.146022D-02  0.134621D-02 -0.138154D-02  0.142489D-02  0.771886D-02
               26            27            28 
     26  0.311361D-01
     27  0.881468D-02  0.311362D-01
     28  0.366093D-02  0.820982D-04  0.289623D-01
 Leave Link  716 at Mon Sep 24 14:19:25 2012, MaxMem= 1610612736 cpu:       0.3
 (Enter /group/hpc-share/gaussian/2009C/g09/l103.exe)

 GradGradGradGradGradGradGradGradGradGradGradGradGradGradGradGradGradGrad
 Berny optimization.
 Red2BG is reusing G-inverse.
 Internal  Forces:  Max     0.000105161 RMS     0.000031421
 Search for a local minimum.
 Step number   1 out of a maximum of    2
 All quantities printed in internal units (Hartrees-Bohrs-Radians)
 Second derivative matrix not updated -- analytic derivatives used.
 ITU=  0
     Eigenvalues ---    0.01895   0.02077   0.03796   0.04309   0.04711
     Eigenvalues ---    0.07247   0.07268   0.08630   0.17255   0.19967
     Eigenvalues ---    0.24187   0.25065   0.27016   0.35595   0.35771
     Eigenvalues ---    0.36169   0.36383   0.55429
 Angle between quadratic step and forces=  39.11 degrees.
 Linear search not attempted -- first point.
 Iteration  1 RMS(Cart)=  0.00020632 RMS(Int)=  0.00000006
 Iteration  2 RMS(Cart)=  0.00000005 RMS(Int)=  0.00000003
 Variable       Old X    -DE/DX   Delta X   Delta X   Delta X     New X
                                 (Linear)    (Quad)   (Total)
    R1        2.88286   0.00001   0.00000  -0.00006  -0.00006   2.88280
    R2        2.75020   0.00008   0.00000   0.00035   0.00035   2.75055
    R3        2.05443   0.00000   0.00000   0.00002   0.00002   2.05444
    R4        2.05517   0.00000   0.00000  -0.00001  -0.00001   2.05516
    R5        2.75020   0.00008   0.00000   0.00035   0.00035   2.75055
    R6        2.05517   0.00000   0.00000  -0.00001  -0.00001   2.05516
    R7        2.05443   0.00000   0.00000   0.00002   0.00002   2.05444
    R8        2.41991  -0.00011   0.00000  -0.00021  -0.00021   2.41969
    A1        2.05892  -0.00001   0.00000  -0.00006  -0.00006   2.05886
    A2        2.07858   0.00003   0.00000   0.00030   0.00030   2.07888
    A3        2.02252  -0.00001   0.00000  -0.00013  -0.00013   2.02239
    A4        2.03735   0.00002   0.00000   0.00025   0.00025   2.03761
    A5        2.02770  -0.00002   0.00000  -0.00026  -0.00025   2.02744
    A6        2.07858   0.00003   0.00000   0.00030   0.00030   2.07888
    A7        2.05892  -0.00001   0.00000  -0.00006  -0.00006   2.05886
    A8        2.03736   0.00002   0.00000   0.00025   0.00025   2.03761
    A9        2.02252  -0.00001   0.00000  -0.00013  -0.00013   2.02239
   A10        2.02770  -0.00002   0.00000  -0.00025  -0.00025   2.02744
   A11        2.19445  -0.00001   0.00000  -0.00019  -0.00019   2.19426
   A12        2.19445  -0.00001   0.00000  -0.00019  -0.00019   2.19426
    D1        2.62016  -0.00002   0.00000  -0.00011  -0.00011   2.62004
    D2        0.00000   0.00000   0.00000   0.00000   0.00000   0.00000
    D3        0.00000   0.00000   0.00000   0.00000   0.00000   0.00000
    D4       -2.62016   0.00002   0.00000   0.00011   0.00011  -2.62004
    D5       -0.13983   0.00002   0.00000   0.00032   0.00032  -0.13952
    D6        2.34733  -0.00001   0.00000   0.00003   0.00003   2.34736
    D7       -2.34734   0.00001   0.00000  -0.00003  -0.00003  -2.34736
    D8        0.13983  -0.00002   0.00000  -0.00032  -0.00032   0.13952
         Item               Value     Threshold  Converged?
 Maximum Force            0.000105     0.000450     YES
 RMS     Force            0.000031     0.000300     YES
 Maximum Displacement     0.000504     0.001800     YES
 RMS     Displacement     0.000206     0.001200     YES
 Predicted change in Energy=-6.702419D-08
 Optimization completed.
    -- Stationary point found.
                           ----------------------------
                           !   Optimized Parameters   !
                           ! (Angstroms and Degrees)  !
 --------------------------                            --------------------------
 ! Name  Definition              Value          Derivative Info.                !
 --------------------------------------------------------------------------------
 ! R1    R(1,2)                  1.5255         -DE/DX =    0.0                 !
 ! R2    R(1,3)                  1.4553         -DE/DX =    0.0001              !
 ! R3    R(1,5)                  1.0872         -DE/DX =    0.0                 !
 ! R4    R(1,6)                  1.0875         -DE/DX =    0.0                 !
 ! R5    R(2,3)                  1.4553         -DE/DX =    0.0001              !
 ! R6    R(2,7)                  1.0875         -DE/DX =    0.0                 !
 ! R7    R(2,8)                  1.0872         -DE/DX =    0.0                 !
 ! R8    R(3,4)                  1.2806         -DE/DX =   -0.0001              !
 ! A1    A(2,1,5)              117.9676         -DE/DX =    0.0                 !
 ! A2    A(2,1,6)              119.0941         -DE/DX =    0.0                 !
 ! A3    A(3,1,5)              115.8821         -DE/DX =    0.0                 !
 ! A4    A(3,1,6)              116.7318         -DE/DX =    0.0                 !
 ! A5    A(5,1,6)              116.1787         -DE/DX =    0.0                 !
 ! A6    A(1,2,7)              119.0941         -DE/DX =    0.0                 !
 ! A7    A(1,2,8)              117.9677         -DE/DX =    0.0                 !
 ! A8    A(3,2,7)              116.7319         -DE/DX =    0.0                 !
 ! A9    A(3,2,8)              115.882          -DE/DX =    0.0                 !
 ! A10   A(7,2,8)              116.1785         -DE/DX =    0.0                 !
 ! A11   A(1,3,4)              125.7329         -DE/DX =    0.0                 !
 ! A12   A(2,3,4)              125.7329         -DE/DX =    0.0                 !
 ! D1    D(5,1,2,7)            150.1238         -DE/DX =    0.0                 !
 ! D2    D(5,1,2,8)             -0.0001         -DE/DX =    0.0                 !
 ! D3    D(6,1,2,7)             -0.0002         -DE/DX =    0.0                 !
 ! D4    D(6,1,2,8)           -150.1241         -DE/DX =    0.0                 !
 ! D5    D(5,1,3,4)             -8.0118         -DE/DX =    0.0                 !
 ! D6    D(6,1,3,4)            134.4924         -DE/DX =    0.0                 !
 ! D7    D(7,2,3,4)           -134.4924         -DE/DX =    0.0                 !
 ! D8    D(8,2,3,4)              8.0117         -DE/DX =    0.0                 !
 --------------------------------------------------------------------------------
 GradGradGradGradGradGradGradGradGradGradGradGradGradGradGradGradGradGrad

 Leave Link  103 at Mon Sep 24 14:19:25 2012, MaxMem= 1610612736 cpu:       0.0
 (Enter /group/hpc-share/gaussian/2009C/g09/l9999.exe)
 1\1\GINC-HPC-CN34\Freq\UB3LYP\6-31G(d)\C2H4N1O1(2)\TALIPOVM\24-Sep-201
 2\0\\#P Geom=AllCheck Guess=TCheck SCRF=Check GenChk UB3LYP/6-31G(d) F
 req\\\0,2\C,-0.8580613816,-0.7628003753,-0.152745311\C,-0.8580337385,0
 .7627420011,-0.1529234371\N,0.2424772006,0.000017304,0.4172921694\O,1.
 4509239352,-0.0000540074,-0.0063677911\H,-0.6470065255,-1.2727588427,-
 1.089390397\H,-1.5010075563,-1.291522756,0.547137431\H,-1.5009627772,1
 .291650966,0.5468339558\H,-0.6469591567,1.2724757102,-1.08968662\\Vers
 ion=EM64L-G09RevC.01\State=2-A\HF=-208.4554578\S2=0.753028\S2-1=0.\S2A
 =0.750005\RMSD=2.643e-09\RMSF=5.493e-05\ZeroPoint=0.061625\Thermal=0.0
 654704\Dipole=-1.2389993,-0.0000054,-0.2390147\DipoleDeriv=0.1118643,-
 0.0550326,-0.0562113,0.0503731,-0.0069675,-0.0289774,-0.1375655,-0.105
 9929,0.2458589,0.1118652,0.0550152,-0.0562235,-0.0504093,-0.0069364,0.
 0290383,-0.1375503,0.1060569,0.245827,0.1111457,0.0000233,0.1637289,0.
 000015,0.3657415,-0.0000848,0.0915389,-0.0000834,-0.3362128,-0.4636667
 ,-0.0000296,-0.2724226,0.0000098,-0.3493677,0.0000306,0.0650299,0.0000
 244,-0.1295817,0.0161458,-0.0171931,0.069112,-0.0228778,0.0139058,-0.0
 359449,-0.0090307,-0.0685709,-0.0123034,0.048247,-0.0577595,0.0414603,
 -0.0866666,-0.0151433,0.015064,0.0683164,0.0386067,-0.0006364,0.048251
 5,0.0577674,0.0414466,0.0866804,-0.0151611,-0.0150622,0.0682948,-0.038
 6057,-0.0006239,0.0161472,0.0172089,0.0691095,0.0228756,0.0139287,0.03
 59365,-0.0090335,0.0685649,-0.0123277\Polar=37.1623405,-0.0004553,30.6
 044445,-2.8339231,-0.0007405,23.8967236\PG=C01 [X(C2H4N1O1)]\NImag=0\\
 0.37232428,0.12848878,0.52896774,-0.16473163,0.07292195,0.58404646,-0.
 00783421,0.02696486,0.02176333,0.37231559,-0.02696740,-0.22080229,-0.0
 0453557,-0.12852160,0.52894328,0.02176983,0.00457285,-0.05726262,-0.16
 470458,-0.07290315,0.58407919,-0.12490596,-0.07451536,-0.04584184,-0.1
 2490176,0.07450611,-0.04585652,0.67559831,-0.03456478,-0.07930115,-0.0
 7532576,0.03456024,-0.07927495,0.07532629,-0.00001140,0.26754489,-0.02
 591436,-0.05369052,-0.08396961,-0.02592040,0.05369033,-0.08399966,-0.0
 3700410,-0.00000351,0.23157255,-0.04301949,-0.02241212,0.01282310,-0.0
 4301802,0.02241706,0.01281699,-0.40793916,0.00001936,0.11468472,0.4951
 9307,-0.01876545,0.00972053,0.02437844,0.01876582,0.00971184,-0.024380
 66,0.00002277,-0.07414913,-0.00000157,-0.00002371,0.04908081,-0.006607
 28,0.00641013,0.00213530,-0.00661188,-0.00641166,0.00214244,0.14361129
 ,-0.00000208,-0.06969929,-0.13417641,0.00000365,0.05956485,-0.05834593
 ,0.02607716,0.06246403,-0.00661627,0.00119813,0.01117717,0.00373327,-0
 .02141038,-0.02804716,0.00518002,0.00401891,0.00120774,0.05483488,0.02
 090437,-0.10725928,-0.11251044,0.00172451,-0.00971392,-0.02445894,0.00
 153556,-0.01027742,-0.00444659,0.00023865,0.00164441,0.00115887,-0.021
 14201,0.11658564,0.05984875,-0.11585879,-0.26772367,-0.00386578,0.0042
 2152,0.00982836,0.00015173,-0.01027095,-0.01202956,0.00105084,0.002266
 61,0.00227518,-0.05896855,0.12628167,0.27851435,-0.13942167,-0.0807350
 3,0.11607779,0.00781891,0.00266875,-0.01373317,-0.01265964,-0.00806386
 ,0.01512756,-0.00578818,-0.00483201,0.00068453,-0.00062194,-0.00184890
 ,0.00176601,0.14919284,-0.08263393,-0.10943941,0.08684082,-0.01526412,
 -0.01217345,0.01623465,-0.00541407,-0.00713423,-0.00232020,0.00228115,
 0.00117375,0.00098214,0.01005827,0.00984863,-0.00840234,0.09178576,0.1
 1818050,0.11734563,0.08723088,-0.18198188,0.00215808,-0.00262875,-0.00
 507082,-0.00760598,-0.00382347,0.01508001,-0.00412533,-0.00248667,0.00
 065294,0.01290596,0.01385723,-0.01144265,-0.12114584,-0.09180237,0.180
 62656,0.00781936,-0.00267268,-0.01373309,-0.13941647,0.08076351,0.1160
 5594,-0.01265901,0.00806748,0.01512571,-0.00578810,0.00483242,0.000683
 38,0.00101920,-0.00283296,0.00069589,0.00046047,0.00180790,0.00052752,
 0.14918679,0.01526394,-0.01217713,-0.01623249,0.08266268,-0.10948591,-
 0.08686178,0.00541239,-0.00713329,0.00232485,-0.00228186,0.00117403,-0
 .00098229,0.00262083,-0.00255658,0.00251228,-0.00180772,0.00210124,-0.
 00097903,-0.09181538,0.11823000,0.00215462,0.00263033,-0.00506768,0.11
 732324,-0.08725185,-0.18194067,-0.00760704,0.00382890,0.01507861,-0.00
 412474,0.00248670,0.00065261,-0.00006066,-0.00063146,0.00052721,0.0005
 2798,0.00097890,0.00160818,-0.12112127,0.09182113,0.18058317,-0.006616
 39,-0.00119561,0.01117832,-0.05834777,-0.02606457,0.06247434,0.0037339
 4,0.02140334,-0.02805197,0.00517986,-0.00401875,0.00120862,0.00081677,
 0.00142078,-0.00067888,0.00101921,-0.00262097,-0.00006003,-0.00062225,
 -0.01005488,0.01290786,0.05483662,-0.00172554,-0.00970901,0.02446304,-
 0.02089239,-0.10720459,0.11247074,-0.00153600,-0.01027470,0.00444720,-
 0.00023854,0.00164376,-0.00115877,-0.00142090,0.00172852,-0.00075000,0
 .00283300,-0.00255702,0.00063217,0.00184972,0.00984765,-0.01386266,0.0
 2113066,0.11652538,-0.00386556,-0.00421683,0.00982370,0.05985799,0.115
 81913,-0.26777621,0.00015245,0.01027058,-0.01203305,0.00105083,-0.0022
 6651,0.00227598,-0.00067853,0.00074965,0.00005078,0.00069515,-0.002511
 60,0.00052764,0.00176592,0.00839732,-0.01144142,-0.05897826,-0.1262417
 2,0.27857258\\0.00005326,0.00001080,-0.00000164,0.00005332,-0.00001096
 ,-0.00000164,-0.00022882,-0.00000006,-0.00002540,0.00010302,-0.0000000
 3,-0.00001891,0.00000652,0.00000876,0.00000012,0.00000313,0.00002396,0
 .00002378,0.00000300,-0.00002396,0.00002356,0.00000657,-0.00000852,0.0
 0000014\\\@


     "IF I COULD JUST GET IT ON PAPER"
 LIFE AND INK, THEY RUN OUT AT THE SAME TIME,
 OR SO SAID MY OLD FRIEND THE SQUID.
     -- JIMMY BUFFETT, 1981
 Job cpu time:  0 days  0 hours  1 minutes 42.6 seconds.
 File lengths (MBytes):  RWF=     14 Int=      0 D2E=      0 Chk=      2 Scr=      1
 Normal termination of Gaussian 09 at Mon Sep 24 14:19:25 2012.
