                                                                        
FOpt      RB3LYP                                                      6-311G(2d,d,p)      
Number of atoms                            I               18
Info1-9                                    I   N=           9
          27          26       15000           0           0         110
           2          18        -502
Charge                                     I                0
Multiplicity                               I                1
Number of electrons                        I               66
Number of alpha electrons                  I               33
Number of beta electrons                   I               33
Number of basis functions                  I              205
Number of independent functions            I              205
Number of point charges in /Mol/           I                0
Number of translation vectors              I                0
Atomic numbers                             I   N=          18
          16           6           7           6           1           6
           8           1           1           6           1           1
           1           1           1           1           1           1
Nuclear charges                            R   N=          18
  1.60000000E+01  6.00000000E+00  7.00000000E+00  6.00000000E+00  1.00000000E+00
  6.00000000E+00  8.00000000E+00  1.00000000E+00  1.00000000E+00  6.00000000E+00
  1.00000000E+00  1.00000000E+00  1.00000000E+00  1.00000000E+00  1.00000000E+00
  1.00000000E+00  1.00000000E+00  1.00000000E+00
Current cartesian coordinates              R   N=          54
 -3.96546759E+00  8.24988070E-01 -9.62040364E-01 -1.10205811E+00  6.55462299E-01
  8.50235940E-01  6.48700943E+00  6.42755333E-01 -8.79120388E-01  6.30177357E+00
 -2.06579275E+00 -2.77703232E-01  7.76065255E+00  9.08418421E-01 -2.29045980E+00
  4.92634150E-01  3.01311771E+00  7.28107430E-01 -5.33155099E-01 -1.21190113E+00
  2.04304142E+00  7.18178333E+00  1.59372773E+00  6.37005759E-01 -3.95517544E+00
 -3.74383861E+00 -9.99496321E-01 -5.26051714E+00 -2.29802227E+00 -3.39474305E-01
 -7.03248321E+00 -2.41759239E+00 -1.38031184E+00 -5.60965460E+00 -2.52607471E+00
  1.67469862E+00  7.55610146E-01  3.72368964E+00  2.65021826E+00 -3.57370576E-01
  4.48765338E+00 -4.32819554E-01  2.35470922E+00  2.50308089E+00 -2.55404895E-02
  4.86699983E+00 -2.33766049E+00  1.18094558E+00  8.07261124E+00 -2.92991108E+00
  3.76061120E-01  5.67497891E+00 -3.09397006E+00 -1.95513913E+00
Force Field                                I                0
Int Atom Types                             I   N=          18
           0           0           0           0           0           0
           0           0           0           0           0           0
           0           0           0           0           0           0
MM charges                                 R   N=          18
  0.00000000E+00  0.00000000E+00  0.00000000E+00  0.00000000E+00  0.00000000E+00
  0.00000000E+00  0.00000000E+00  0.00000000E+00  0.00000000E+00  0.00000000E+00
  0.00000000E+00  0.00000000E+00  0.00000000E+00  0.00000000E+00  0.00000000E+00
  0.00000000E+00  0.00000000E+00  0.00000000E+00
Integer atomic weights                     I   N=          18
          32          12          14          12           1          12
          16           1           1          12           1           1
           1           1           1           1           1           1
Real atomic weights                        R   N=          18
  3.19720718E+01  1.20000000E+01  1.40030740E+01  1.20000000E+01  1.00782504E+00
  1.20000000E+01  1.59949146E+01  1.00782504E+00  1.00782504E+00  1.20000000E+01
  1.00782504E+00  1.00782504E+00  1.00782504E+00  1.00782504E+00  1.00782504E+00
  1.00782504E+00  1.00782504E+00  1.00782504E+00
Atom fragment info                         I   N=          18
           0           0           0           0           0           0
           0           0           0           0           0           0
           0           0           0           0           0           0
Atom residue num                           I   N=          18
           0           0           0           0           0           0
           0           0           0           0           0           0
           0           0           0           0           0           0
Nuclear spins                              I   N=          18
           0           0           2           0           1           0
           0           1           1           0           1           1
           1           1           1           1           1           1
Nuclear ZEff                               R   N=          18
 -1.36000000E+01 -3.60000000E+00 -4.55000000E+00 -3.60000000E+00 -1.00000000E+00
 -3.60000000E+00 -5.60000000E+00 -1.00000000E+00 -1.00000000E+00 -3.60000000E+00
 -1.00000000E+00 -1.00000000E+00 -1.00000000E+00 -1.00000000E+00 -1.00000000E+00
 -1.00000000E+00 -1.00000000E+00 -1.00000000E+00
Nuclear QMom                               R   N=          18
  0.00000000E+00  0.00000000E+00  2.04400000E+00  0.00000000E+00  0.00000000E+00
  0.00000000E+00  0.00000000E+00  0.00000000E+00  0.00000000E+00  0.00000000E+00
  0.00000000E+00  0.00000000E+00  0.00000000E+00  0.00000000E+00  0.00000000E+00
  0.00000000E+00  0.00000000E+00  0.00000000E+00
Nuclear GFac                               R   N=          18
  0.00000000E+00  0.00000000E+00  4.03761000E-01  0.00000000E+00  2.79284600E+00
  0.00000000E+00  0.00000000E+00  2.79284600E+00  2.79284600E+00  0.00000000E+00
  2.79284600E+00  2.79284600E+00  2.79284600E+00  2.79284600E+00  2.79284600E+00
  2.79284600E+00  2.79284600E+00  2.79284600E+00
MicOpt                                     I   N=          18
          -1          -1          -1          -1          -1          -1
          -1          -1          -1          -1          -1          -1
          -1          -1          -1          -1          -1          -1
Number of contracted shells                I               87
Number of primitive shells                 I              162
Pure/Cartesian d shells                    I                0
Pure/Cartesian f shells                    I                0
Highest angular momentum                   I                2
Largest degree of contraction              I                6
Shell types                                I   N=          87
           0           0           0           0           0           0
           1           1           1           1           1          -2
          -2           0          -1          -1          -1          -2
           0          -1          -1          -1          -2           0
          -1          -1          -1          -2           0           0
           0           1           0          -1          -1          -1
          -2           0          -1          -1          -1          -2
           0           0           0           1           0           0
           0           1           0          -1          -1          -1
          -2           0           0           0           1           0
           0           0           1           0           0           0
           1           0           0           0           1           0
           0           0           1           0           0           0
           1           0           0           0           1           0
           0           0           1
Number of primitives per shell             I   N=          87
           6           3           1           1           1           1
           4           2           1           1           1           1
           1           6           3           1           1           1
           6           3           1           1           1           6
           3           1           1           1           3           1
           1           1           6           3           1           1
           1           6           3           1           1           1
           3           1           1           1           3           1
           1           1           6           3           1           1
           1           3           1           1           1           3
           1           1           1           3           1           1
           1           3           1           1           1           3
           1           1           1           3           1           1
           1           3           1           1           1           3
           1           1           1
Shell to atom map                          I   N=          87
           1           1           1           1           1           1
           1           1           1           1           1           1
           1           2           2           2           2           2
           3           3           3           3           3           4
           4           4           4           4           5           5
           5           5           6           6           6           6
           6           7           7           7           7           7
           8           8           8           8           9           9
           9           9          10          10          10          10
          10          11          11          11          11          12
          12          12          12          13          13          13
          13          14          14          14          14          15
          15          15          15          16          16          16
          16          17          17          17          17          18
          18          18          18
Primitive exponents                        R   N=         162
  9.34134000E+04  1.39617000E+04  3.16991000E+03  9.02456000E+02  2.97158000E+02
  1.08702000E+02  1.08702000E+02  4.31553000E+01  1.81079000E+01  5.56009000E+00
  2.13183000E+00  4.20403000E-01  1.36045000E-01  4.95040000E+02  1.17221000E+02
  3.77749000E+01  1.40584000E+01  5.56574000E+00  2.26297000E+00  8.07994000E-01
  2.77460000E-01  7.71410000E-02  1.30000000E+00  3.25000000E-01  4.56324000E+03
  6.82024000E+02  1.54973000E+02  4.44553000E+01  1.30290000E+01  1.82773000E+00
  2.09642000E+01  4.80331000E+00  1.45933000E+00  4.83456000E-01  1.45585000E-01
  6.26000000E-01  6.29348000E+03  9.49044000E+02  2.18776000E+02  6.36916000E+01
  1.88282000E+01  2.72023000E+00  3.06331000E+01  7.02614000E+00  2.11205000E+00
  6.84009000E-01  2.00878000E-01  9.13000000E-01  4.56324000E+03  6.82024000E+02
  1.54973000E+02  4.44553000E+01  1.30290000E+01  1.82773000E+00  2.09642000E+01
  4.80331000E+00  1.45933000E+00  4.83456000E-01  1.45585000E-01  6.26000000E-01
  3.38650000E+01  5.09479000E+00  1.15879000E+00  3.25840000E-01  1.02741000E-01
  7.50000000E-01  4.56324000E+03  6.82024000E+02  1.54973000E+02  4.44553000E+01
  1.30290000E+01  1.82773000E+00  2.09642000E+01  4.80331000E+00  1.45933000E+00
  4.83456000E-01  1.45585000E-01  6.26000000E-01  8.58850000E+03  1.29723000E+03
  2.99296000E+02  8.73771000E+01  2.56789000E+01  3.74004000E+00  4.21175000E+01
  9.62837000E+00  2.85332000E+00  9.05661000E-01  2.55611000E-01  1.29200000E+00
  3.38650000E+01  5.09479000E+00  1.15879000E+00  3.25840000E-01  1.02741000E-01
  7.50000000E-01  3.38650000E+01  5.09479000E+00  1.15879000E+00  3.25840000E-01
  1.02741000E-01  7.50000000E-01  4.56324000E+03  6.82024000E+02  1.54973000E+02
  4.44553000E+01  1.30290000E+01  1.82773000E+00  2.09642000E+01  4.80331000E+00
  1.45933000E+00  4.83456000E-01  1.45585000E-01  6.26000000E-01  3.38650000E+01
  5.09479000E+00  1.15879000E+00  3.25840000E-01  1.02741000E-01  7.50000000E-01
  3.38650000E+01  5.09479000E+00  1.15879000E+00  3.25840000E-01  1.02741000E-01
  7.50000000E-01  3.38650000E+01  5.09479000E+00  1.15879000E+00  3.25840000E-01
  1.02741000E-01  7.50000000E-01  3.38650000E+01  5.09479000E+00  1.15879000E+00
  3.25840000E-01  1.02741000E-01  7.50000000E-01  3.38650000E+01  5.09479000E+00
  1.15879000E+00  3.25840000E-01  1.02741000E-01  7.50000000E-01  3.38650000E+01
  5.09479000E+00  1.15879000E+00  3.25840000E-01  1.02741000E-01  7.50000000E-01
  3.38650000E+01  5.09479000E+00  1.15879000E+00  3.25840000E-01  1.02741000E-01
  7.50000000E-01  3.38650000E+01  5.09479000E+00  1.15879000E+00  3.25840000E-01
  1.02741000E-01  7.50000000E-01
Contraction coefficients                   R   N=         162
  7.42999957E-04  5.79299966E-03  2.99539983E-02  1.19027993E-01  3.68431979E-01
  5.77298966E-01  1.43186060E-01  6.24465262E-01  2.83366119E-01  1.00000000E+00
  1.00000000E+00  1.00000000E+00  1.00000000E+00  8.30900251E-03  6.40240194E-02
  2.77614084E-01  7.45076225E-01  6.13711672E-01  4.43817763E-01  1.00000000E+00
  1.00000000E+00  1.00000000E+00  1.00000000E+00  1.00000000E+00  1.96665025E-03
  1.52306019E-02  7.61269097E-02  2.60801033E-01  6.16462078E-01  2.21006028E-01
  1.14660081E-01  9.19999648E-01 -3.03068213E-03  1.00000000E+00  1.00000000E+00
  1.00000000E+00  1.96978815E-03  1.49612859E-02  7.35005308E-02  2.48936766E-01
  6.02459433E-01  2.56201759E-01  1.11906080E-01  9.21666655E-01 -2.56919183E-03
  1.00000000E+00  1.00000000E+00  1.00000000E+00  1.96665025E-03  1.52306019E-02
  7.61269097E-02  2.60801033E-01  6.16462078E-01  2.21006028E-01  1.14660081E-01
  9.19999648E-01 -3.03068213E-03  1.00000000E+00  1.00000000E+00  1.00000000E+00
  2.54938145E-02  1.90373109E-01  8.52161486E-01  1.00000000E+00  1.00000000E+00
  1.00000000E+00  1.96665025E-03  1.52306019E-02  7.61269097E-02  2.60801033E-01
  6.16462078E-01  2.21006028E-01  1.14660081E-01  9.19999648E-01 -3.03068213E-03
  1.00000000E+00  1.00000000E+00  1.00000000E+00  1.89515008E-03  1.43859006E-02
  7.07320031E-02  2.40001011E-01  5.94797026E-01  2.80802012E-01  1.13889012E-01
  9.20811101E-01 -3.27447036E-03  1.00000000E+00  1.00000000E+00  1.00000000E+00
  2.54938145E-02  1.90373109E-01  8.52161486E-01  1.00000000E+00  1.00000000E+00
  1.00000000E+00  2.54938145E-02  1.90373109E-01  8.52161486E-01  1.00000000E+00
  1.00000000E+00  1.00000000E+00  1.96665025E-03  1.52306019E-02  7.61269097E-02
  2.60801033E-01  6.16462078E-01  2.21006028E-01  1.14660081E-01  9.19999648E-01
 -3.03068213E-03  1.00000000E+00  1.00000000E+00  1.00000000E+00  2.54938145E-02
  1.90373109E-01  8.52161486E-01  1.00000000E+00  1.00000000E+00  1.00000000E+00
  2.54938145E-02  1.90373109E-01  8.52161486E-01  1.00000000E+00  1.00000000E+00
  1.00000000E+00  2.54938145E-02  1.90373109E-01  8.52161486E-01  1.00000000E+00
  1.00000000E+00  1.00000000E+00  2.54938145E-02  1.90373109E-01  8.52161486E-01
  1.00000000E+00  1.00000000E+00  1.00000000E+00  2.54938145E-02  1.90373109E-01
  8.52161486E-01  1.00000000E+00  1.00000000E+00  1.00000000E+00  2.54938145E-02
  1.90373109E-01  8.52161486E-01  1.00000000E+00  1.00000000E+00  1.00000000E+00
  2.54938145E-02  1.90373109E-01  8.52161486E-01  1.00000000E+00  1.00000000E+00
  1.00000000E+00  2.54938145E-02  1.90373109E-01  8.52161486E-01  1.00000000E+00
  1.00000000E+00  1.00000000E+00
P(S=P) Contraction coefficients            R   N=         162
  0.00000000E+00  0.00000000E+00  0.00000000E+00  0.00000000E+00  0.00000000E+00
  0.00000000E+00  0.00000000E+00  0.00000000E+00  0.00000000E+00  0.00000000E+00
  0.00000000E+00  0.00000000E+00  0.00000000E+00  0.00000000E+00  0.00000000E+00
  0.00000000E+00  0.00000000E+00  0.00000000E+00  0.00000000E+00  0.00000000E+00
  0.00000000E+00  0.00000000E+00  0.00000000E+00  0.00000000E+00  0.00000000E+00
  0.00000000E+00  0.00000000E+00  0.00000000E+00  0.00000000E+00  0.00000000E+00
  4.02486927E-02  2.37593957E-01  8.15853851E-01  1.00000000E+00  1.00000000E+00
  0.00000000E+00  0.00000000E+00  0.00000000E+00  0.00000000E+00  0.00000000E+00
  0.00000000E+00  0.00000000E+00  3.83119186E-02  2.37403116E-01  8.17592398E-01
  1.00000000E+00  1.00000000E+00  0.00000000E+00  0.00000000E+00  0.00000000E+00
  0.00000000E+00  0.00000000E+00  0.00000000E+00  0.00000000E+00  4.02486927E-02
  2.37593957E-01  8.15853851E-01  1.00000000E+00  1.00000000E+00  0.00000000E+00
  0.00000000E+00  0.00000000E+00  0.00000000E+00  0.00000000E+00  0.00000000E+00
  0.00000000E+00  0.00000000E+00  0.00000000E+00  0.00000000E+00  0.00000000E+00
  0.00000000E+00  0.00000000E+00  4.02486927E-02  2.37593957E-01  8.15853851E-01
  1.00000000E+00  1.00000000E+00  0.00000000E+00  0.00000000E+00  0.00000000E+00
  0.00000000E+00  0.00000000E+00  0.00000000E+00  0.00000000E+00  3.65113974E-02
  2.37152983E-01  8.19701941E-01  1.00000000E+00  1.00000000E+00  0.00000000E+00
  0.00000000E+00  0.00000000E+00  0.00000000E+00  0.00000000E+00  0.00000000E+00
  0.00000000E+00  0.00000000E+00  0.00000000E+00  0.00000000E+00  0.00000000E+00
  0.00000000E+00  0.00000000E+00  0.00000000E+00  0.00000000E+00  0.00000000E+00
  0.00000000E+00  0.00000000E+00  0.00000000E+00  4.02486927E-02  2.37593957E-01
  8.15853851E-01  1.00000000E+00  1.00000000E+00  0.00000000E+00  0.00000000E+00
  0.00000000E+00  0.00000000E+00  0.00000000E+00  0.00000000E+00  0.00000000E+00
  0.00000000E+00  0.00000000E+00  0.00000000E+00  0.00000000E+00  0.00000000E+00
  0.00000000E+00  0.00000000E+00  0.00000000E+00  0.00000000E+00  0.00000000E+00
  0.00000000E+00  0.00000000E+00  0.00000000E+00  0.00000000E+00  0.00000000E+00
  0.00000000E+00  0.00000000E+00  0.00000000E+00  0.00000000E+00  0.00000000E+00
  0.00000000E+00  0.00000000E+00  0.00000000E+00  0.00000000E+00  0.00000000E+00
  0.00000000E+00  0.00000000E+00  0.00000000E+00  0.00000000E+00  0.00000000E+00
  0.00000000E+00  0.00000000E+00  0.00000000E+00  0.00000000E+00  0.00000000E+00
  0.00000000E+00  0.00000000E+00  0.00000000E+00  0.00000000E+00  0.00000000E+00
  0.00000000E+00  0.00000000E+00
Coordinates of each shell                  R   N=         261
 -3.96546759E+00  8.24988070E-01 -9.62040364E-01 -3.96546759E+00  8.24988070E-01
 -9.62040364E-01 -3.96546759E+00  8.24988070E-01 -9.62040364E-01 -3.96546759E+00
  8.24988070E-01 -9.62040364E-01 -3.96546759E+00  8.24988070E-01 -9.62040364E-01
 -3.96546759E+00  8.24988070E-01 -9.62040364E-01 -3.96546759E+00  8.24988070E-01
 -9.62040364E-01 -3.96546759E+00  8.24988070E-01 -9.62040364E-01 -3.96546759E+00
  8.24988070E-01 -9.62040364E-01 -3.96546759E+00  8.24988070E-01 -9.62040364E-01
 -3.96546759E+00  8.24988070E-01 -9.62040364E-01 -3.96546759E+00  8.24988070E-01
 -9.62040364E-01 -3.96546759E+00  8.24988070E-01 -9.62040364E-01 -1.10205811E+00
  6.55462299E-01  8.50235940E-01 -1.10205811E+00  6.55462299E-01  8.50235940E-01
 -1.10205811E+00  6.55462299E-01  8.50235940E-01 -1.10205811E+00  6.55462299E-01
  8.50235940E-01 -1.10205811E+00  6.55462299E-01  8.50235940E-01  6.48700943E+00
  6.42755333E-01 -8.79120388E-01  6.48700943E+00  6.42755333E-01 -8.79120388E-01
  6.48700943E+00  6.42755333E-01 -8.79120388E-01  6.48700943E+00  6.42755333E-01
 -8.79120388E-01  6.48700943E+00  6.42755333E-01 -8.79120388E-01  6.30177357E+00
 -2.06579275E+00 -2.77703232E-01  6.30177357E+00 -2.06579275E+00 -2.77703232E-01
  6.30177357E+00 -2.06579275E+00 -2.77703232E-01  6.30177357E+00 -2.06579275E+00
 -2.77703232E-01  6.30177357E+00 -2.06579275E+00 -2.77703232E-01  7.76065255E+00
  9.08418421E-01 -2.29045980E+00  7.76065255E+00  9.08418421E-01 -2.29045980E+00
  7.76065255E+00  9.08418421E-01 -2.29045980E+00  7.76065255E+00  9.08418421E-01
 -2.29045980E+00  4.92634150E-01  3.01311771E+00  7.28107430E-01  4.92634150E-01
  3.01311771E+00  7.28107430E-01  4.92634150E-01  3.01311771E+00  7.28107430E-01
  4.92634150E-01  3.01311771E+00  7.28107430E-01  4.92634150E-01  3.01311771E+00
  7.28107430E-01 -5.33155099E-01 -1.21190113E+00  2.04304142E+00 -5.33155099E-01
 -1.21190113E+00  2.04304142E+00 -5.33155099E-01 -1.21190113E+00  2.04304142E+00
 -5.33155099E-01 -1.21190113E+00  2.04304142E+00 -5.33155099E-01 -1.21190113E+00
  2.04304142E+00  7.18178333E+00  1.59372773E+00  6.37005759E-01  7.18178333E+00
  1.59372773E+00  6.37005759E-01  7.18178333E+00  1.59372773E+00  6.37005759E-01
  7.18178333E+00  1.59372773E+00  6.37005759E-01 -3.95517544E+00 -3.74383861E+00
 -9.99496321E-01 -3.95517544E+00 -3.74383861E+00 -9.99496321E-01 -3.95517544E+00
 -3.74383861E+00 -9.99496321E-01 -3.95517544E+00 -3.74383861E+00 -9.99496321E-01
 -5.26051714E+00 -2.29802227E+00 -3.39474305E-01 -5.26051714E+00 -2.29802227E+00
 -3.39474305E-01 -5.26051714E+00 -2.29802227E+00 -3.39474305E-01 -5.26051714E+00
 -2.29802227E+00 -3.39474305E-01 -5.26051714E+00 -2.29802227E+00 -3.39474305E-01
 -7.03248321E+00 -2.41759239E+00 -1.38031184E+00 -7.03248321E+00 -2.41759239E+00
 -1.38031184E+00 -7.03248321E+00 -2.41759239E+00 -1.38031184E+00 -7.03248321E+00
 -2.41759239E+00 -1.38031184E+00 -5.60965460E+00 -2.52607471E+00  1.67469862E+00
 -5.60965460E+00 -2.52607471E+00  1.67469862E+00 -5.60965460E+00 -2.52607471E+00
  1.67469862E+00 -5.60965460E+00 -2.52607471E+00  1.67469862E+00  7.55610146E-01
  3.72368964E+00  2.65021826E+00  7.55610146E-01  3.72368964E+00  2.65021826E+00
  7.55610146E-01  3.72368964E+00  2.65021826E+00  7.55610146E-01  3.72368964E+00
  2.65021826E+00 -3.57370576E-01  4.48765338E+00 -4.32819554E-01 -3.57370576E-01
  4.48765338E+00 -4.32819554E-01 -3.57370576E-01  4.48765338E+00 -4.32819554E-01
 -3.57370576E-01  4.48765338E+00 -4.32819554E-01  2.35470922E+00  2.50308089E+00
 -2.55404895E-02  2.35470922E+00  2.50308089E+00 -2.55404895E-02  2.35470922E+00
  2.50308089E+00 -2.55404895E-02  2.35470922E+00  2.50308089E+00 -2.55404895E-02
  4.86699983E+00 -2.33766049E+00  1.18094558E+00  4.86699983E+00 -2.33766049E+00
  1.18094558E+00  4.86699983E+00 -2.33766049E+00  1.18094558E+00  4.86699983E+00
 -2.33766049E+00  1.18094558E+00  8.07261124E+00 -2.92991108E+00  3.76061120E-01
  8.07261124E+00 -2.92991108E+00  3.76061120E-01  8.07261124E+00 -2.92991108E+00
  3.76061120E-01  8.07261124E+00 -2.92991108E+00  3.76061120E-01  5.67497891E+00
 -3.09397006E+00 -1.95513913E+00  5.67497891E+00 -3.09397006E+00 -1.95513913E+00
  5.67497891E+00 -3.09397006E+00 -1.95513913E+00  5.67497891E+00 -3.09397006E+00
 -1.95513913E+00
Constraint Structure                       R   N=          54
 -2.85749344E+00 -2.52142625E-01 -1.58462899E+00 -1.08963443E+00  1.53544251E+00
  6.43906141E-01  5.90048021E+00 -1.26671249E-01 -5.50287391E-01  4.76180514E+00
 -2.42399157E+00  4.27267938E-01  6.65003985E+00 -4.36624681E-01 -2.30104306E+00
  6.81210379E-01  3.36702047E+00 -5.94866030E-01 -1.25746122E+00  1.24261067E+00
  2.90256351E+00  7.36549081E+00  4.33801548E-01  5.73343768E-01 -4.04233581E+00
 -4.30609564E+00  1.03520057E-01 -4.59061949E+00 -2.32972516E+00  4.55141398E-01
 -6.63203377E+00 -2.09981958E+00  1.24892859E-01 -4.12336542E+00 -1.80033762E+00
  2.41711176E+00  8.03760386E-01  5.09088525E+00  5.68657247E-01  8.83658536E-02
  3.85234037E+00 -2.53140068E+00  2.58654499E+00  2.46548742E+00 -6.65938630E-01
  3.96723227E+00 -2.05704397E+00  2.32045227E+00  6.06227567E+00 -4.06397246E+00
  5.88178118E-01  3.17367888E+00 -2.99100273E+00 -8.00902871E-01
Num ILSW                                   I              100
ILSW                                       I   N=         100
           0           0           0           0           2           0
           0           0           0           0         402          -1
           0           0           0           0           0           0
           0           0           0           0           1           0
           0           0           1           0           0           0
           0           0      100000           0          -1           0
           0           0           0           0           0           0
           0           0           0           1           0           0
           0           0           1           0           0           0
           0           0           4          40           0           0
           0           0           5           0           0           0
           0           0           0           0           0           0
           0           0           0           0           0           0
           0           0           0           0           0           0
           0           0           0           0           0           0
           0           0           0           0           0           0
           0           0           0           0
Num RLSW                                   I               40
RLSW                                       R   N=          40
  8.00000000E-01  7.20000000E-01  1.00000000E+00  8.10000000E-01  2.00000000E-01
  0.00000000E+00  0.00000000E+00  1.00000000E+00  0.00000000E+00  0.00000000E+00
  0.00000000E+00  0.00000000E+00  1.00000000E+00  0.00000000E+00  0.00000000E+00
  0.00000000E+00  0.00000000E+00  1.00000000E+00  0.00000000E+00  0.00000000E+00
  0.00000000E+00  0.00000000E+00  1.00000000E+00  0.00000000E+00  0.00000000E+00
  0.00000000E+00  0.00000000E+00  1.00000000E+00  0.00000000E+00  0.00000000E+00
  0.00000000E+00  0.00000000E+00  1.00000000E+00  0.00000000E+00  0.00000000E+00
  0.00000000E+00  0.00000000E+00  0.00000000E+00  1.00000000E+00  1.00000000E+00
MxBond                                     I                4
NBond                                      I   N=          18
           2           3           3           4           1           4
           1           1           1           4           1           1
           1           1           1           1           1           1
IBond                                      I   N=          72
           2          10           0           0           1           6
           7           0           4           5           8           0
           3          16          17          18           3           0
           0           0           2          13          14          15
           2           0           0           0           3           0
           0           0          10           0           0           0
           1           9          11          12          10           0
           0           0          10           0           0           0
           6           0           0           0           6           0
           0           0           6           0           0           0
           4           0           0           0           4           0
           0           0           4           0           0           0
RBond                                      R   N=          72
  1.00000000E+00  1.00000000E+00  0.00000000E+00  0.00000000E+00  1.00000000E+00
  1.00000000E+00  2.00000000E+00  0.00000000E+00  1.00000000E+00  1.00000000E+00
  1.00000000E+00  0.00000000E+00  1.00000000E+00  1.00000000E+00  1.00000000E+00
  1.00000000E+00  1.00000000E+00  0.00000000E+00  0.00000000E+00  0.00000000E+00
  1.00000000E+00  1.00000000E+00  1.00000000E+00  1.00000000E+00  2.00000000E+00
  0.00000000E+00  0.00000000E+00  0.00000000E+00  1.00000000E+00  0.00000000E+00
  0.00000000E+00  0.00000000E+00  1.00000000E+00  0.00000000E+00  0.00000000E+00
  0.00000000E+00  1.00000000E+00  1.00000000E+00  1.00000000E+00  1.00000000E+00
  1.00000000E+00  0.00000000E+00  0.00000000E+00  0.00000000E+00  1.00000000E+00
  0.00000000E+00  0.00000000E+00  0.00000000E+00  1.00000000E+00  0.00000000E+00
  0.00000000E+00  0.00000000E+00  1.00000000E+00  0.00000000E+00  0.00000000E+00
  0.00000000E+00  1.00000000E+00  0.00000000E+00  0.00000000E+00  0.00000000E+00
  1.00000000E+00  0.00000000E+00  0.00000000E+00  0.00000000E+00  1.00000000E+00
  0.00000000E+00  0.00000000E+00  0.00000000E+00  1.00000000E+00  0.00000000E+00
  0.00000000E+00  0.00000000E+00
Virial Ratio                               R      2.002561583759329E+00
SCF Energy                                 R     -6.873414003495966E+02
Total Energy                               R     -6.873414003495966E+02
RMS Force                                  R      1.028183744425684E-04
RMS Density                                R      3.865927385150133E-09
External E-field                           R   N=          35
  0.00000000E+00  0.00000000E+00  0.00000000E+00  0.00000000E+00  0.00000000E+00
  0.00000000E+00  0.00000000E+00  0.00000000E+00  0.00000000E+00  0.00000000E+00
  0.00000000E+00  0.00000000E+00  0.00000000E+00  0.00000000E+00  0.00000000E+00
  0.00000000E+00  0.00000000E+00  0.00000000E+00  0.00000000E+00  0.00000000E+00
  0.00000000E+00  0.00000000E+00  0.00000000E+00  0.00000000E+00  0.00000000E+00
  0.00000000E+00  0.00000000E+00  0.00000000E+00  0.00000000E+00  0.00000000E+00
  0.00000000E+00  0.00000000E+00  0.00000000E+00  0.00000000E+00  0.00000000E+00
IOpCl                                      I                0
IROHF                                      I                0
Alpha Orbital Energies                     R   N=         205
 -8.88617029E+01 -1.91211268E+01 -1.42909298E+01 -1.02871797E+01 -1.01978386E+01
 -1.01822206E+01 -1.01737001E+01 -7.94794611E+00 -5.91145154E+00 -5.90742831E+00
 -5.90311512E+00 -1.06164672E+00 -8.75393367E-01 -8.03832141E-01 -7.49917628E-01
 -6.62285631E-01 -6.59576908E-01 -5.31008879E-01 -4.89633355E-01 -4.77048211E-01
 -4.56515110E-01 -4.54947299E-01 -4.39829962E-01 -4.29843699E-01 -4.23859778E-01
 -4.02214427E-01 -3.82627024E-01 -3.72031544E-01 -3.66912058E-01 -3.54219089E-01
 -2.66687714E-01 -2.60305860E-01 -2.45116663E-01 -2.63806944E-02  1.42474837E-02
  4.00240898E-02  6.12762971E-02  6.68556563E-02  8.18313816E-02  9.08589237E-02
  1.02001182E-01  1.09626636E-01  1.13225329E-01  1.23800975E-01  1.29483377E-01
  1.43748860E-01  1.69385100E-01  1.80166146E-01  1.84633143E-01  2.14169969E-01
  2.30981285E-01  2.49084380E-01  2.55102889E-01  2.70571974E-01  3.01636649E-01
  3.15667074E-01  3.21118617E-01  3.33817584E-01  3.55410277E-01  3.73011736E-01
  3.85909025E-01  4.04765043E-01  4.18290899E-01  4.22672077E-01  4.67414202E-01