                                                                        
Scan      RB3LYP                                                      6-31G(d)            
Number of atoms                            I                6
Info1-9                                    I   N=           9
          18          18        1002           0           0         100
           8          18        -502
Charge                                     I               -1
Multiplicity                               I                1
Number of electrons                        I               62
Number of alpha electrons                  I               31
Number of beta electrons                   I               31
Number of basis functions                  I               70
Number of independent functions            I               70
Number of point charges in /Mol/           I                0
Number of translation vectors              I                0
Atomic numbers                             I   N=           6
           6           1           1           1          17          35
Nuclear charges                            R   N=           6
  6.00000000E+00  1.00000000E+00  1.00000000E+00  1.00000000E+00  1.70000000E+01
  3.50000000E+01
Current cartesian coordinates              R   N=          18
  3.08960905E-01  5.48384453E-03  1.82135304E-02  1.01488461E+00  1.85914236E+00
  5.50739040E-01  1.01667640E+00 -1.37714046E+00  1.36192545E+00  1.03753716E+00
 -4.61356375E-01 -1.84429304E+00  6.35760978E+00 -1.17256863E-03 -3.91118385E-03
 -3.22863514E+00 -9.60426415E-04 -3.17607163E-03
Force Field                                I                0
Int Atom Types                             I   N=           6
           0           0           0           0           0           0
MM charges                                 R   N=           6
  0.00000000E+00  0.00000000E+00  0.00000000E+00  0.00000000E+00  0.00000000E+00
  0.00000000E+00
Integer atomic weights                     I   N=           6
          12           1           1           1          35          79
Real atomic weights                        R   N=           6
  1.20000000E+01  1.00782504E+00  1.00782504E+00  1.00782504E+00  3.49688527E+01
  7.89183361E+01
Atom fragment info                         I   N=           6
           0           0           0           0           0           0
Atom residue num                           I   N=           6
           0           0           0           0           0           0
Nuclear spins                              I   N=           6
           0           1           1           1           3           3
Nuclear ZEff                               R   N=           6
 -3.60000000E+00 -1.00000000E+00 -1.00000000E+00 -1.00000000E+00 -1.42400000E+01
 -2.45000000E+01
Nuclear QMom                               R   N=           6
  0.00000000E+00  0.00000000E+00  0.00000000E+00  0.00000000E+00 -8.16500000E+00
  3.13000000E+01
Nuclear GFac                               R   N=           6
  0.00000000E+00  2.79284600E+00  2.79284600E+00  2.79284600E+00  8.21874000E-01
  2.10639900E+00
MicOpt                                     I   N=           6
          -1          -1          -1          -1          -1          -1
Number of contracted shells                I               27
Number of primitive shells                 I               71
Pure/Cartesian d shells                    I                1
Pure/Cartesian f shells                    I                0
Highest angular momentum                   I                2
Largest degree of contraction              I                8
Shell types                                I   N=          27
           0          -1          -1           2           0           0
           0           0           0           0           0          -1
          -1          -1           2           0           0           0
           0           0           0           1           1           1
           1           2           2
Number of primitives per shell             I   N=          27
           6           3           1           1           3           1
           3           1           3           1           6           6
           3           1           1           8           2           1
           1           1           1           6           3           1
           1           5           1
Shell to atom map                          I   N=          27
           1           1           1           1           2           2
           3           3           4           4           5           5
           5           5           5           6           6           6
           6           6           6           6           6           6
           6           6           6
Primitive exponents                        R   N=          71
  3.04752488E+03  4.57369518E+02  1.03948685E+02  2.92101553E+01  9.28666296E+00
  3.16392696E+00  7.86827235E+00  1.88128854E+00  5.44249258E-01  1.68714478E-01
  8.00000000E-01  1.87311370E+01  2.82539436E+00  6.40121692E-01  1.61277759E-01
  1.87311370E+01  2.82539436E+00  6.40121692E-01  1.61277759E-01  1.87311370E+01
  2.82539436E+00  6.40121692E-01  1.61277759E-01  2.51801000E+04  3.78035000E+03
  8.60474000E+02  2.42145000E+02  7.73349000E+01  2.62470000E+01  4.91765000E+02
  1.16984000E+02  3.74153000E+01  1.37834000E+01  5.45215000E+00  2.22588000E+00
  3.18649000E+00  1.14427000E+00  4.20377000E-01  1.42657000E-01  7.50000000E-01
  5.74300000E+05  8.90700000E+04  2.02100000E+04  5.73600000E+03  1.89900000E+03
  6.98700000E+02  2.77800000E+02  1.15200000E+02  3.59700000E+01  1.55000000E+01
  4.77100000E+00  2.07700000E+00  4.21100000E-01  1.61000000E-01  4.40600000E+03
  1.04200000E+03  3.32100000E+02  1.21900000E+02  4.92400000E+01  2.11600000E+01
  8.83600000E+00  3.82900000E+00  1.64300000E+00  4.65000000E-01  1.42700000E-01
  1.08400000E+02  3.07100000E+01  1.06600000E+01  3.85100000E+00  1.31700000E+00
  3.38000000E-01
Contraction coefficients                   R   N=          71
  1.83473713E-03  1.40373228E-02  6.88426223E-02  2.32184443E-01  4.67941348E-01
  3.62311985E-01 -1.19332420E-01 -1.60854152E-01  1.14345644E+00  1.00000000E+00
  1.00000000E+00  3.34946043E-02  2.34726953E-01  8.13757326E-01  1.00000000E+00
  3.34946043E-02  2.34726953E-01  8.13757326E-01  1.00000000E+00  3.34946043E-02
  2.34726953E-01  8.13757326E-01  1.00000000E+00  1.83295985E-03  1.40341988E-02
  6.90973943E-02  2.37451980E-01  4.83033960E-01  3.39855972E-01 -2.29739142E-03
 -3.07137189E-02 -1.12528069E-01  4.50163278E-02  5.89353363E-01  4.65206287E-01
 -2.51828028E-01  6.15892514E-02  1.06018433E+00  1.00000000E+00  1.00000000E+00
  2.10682753E-04  1.61271721E-03  8.36010959E-03  3.40275588E-02  1.08515001E-01
  2.67396944E-01  4.29567221E-01  2.86993117E-01  2.77772914E-01  7.47057636E-01
  1.00000000E+00  1.00000000E+00  1.00000000E+00  1.00000000E+00  1.39552623E-03
  1.23748283E-02  6.10175241E-02  2.26775547E-01  4.05975875E-01  4.50692322E-01
  2.92018585E-01  5.30220862E-01  2.75287404E-01  1.00000000E+00  1.00000000E+00
  2.15879371E-02  1.34176036E-01  3.67870647E-01  4.91895206E-01  2.68321979E-01
  1.00000000E+00
P(S=P) Contraction coefficients            R   N=          71
  0.00000000E+00  0.00000000E+00  0.00000000E+00  0.00000000E+00  0.00000000E+00
  0.00000000E+00  6.89990666E-02  3.16423961E-01  7.44308291E-01  1.00000000E+00
  0.00000000E+00  0.00000000E+00  0.00000000E+00  0.00000000E+00  0.00000000E+00
  0.00000000E+00  0.00000000E+00  0.00000000E+00  0.00000000E+00  0.00000000E+00
  0.00000000E+00  0.00000000E+00  0.00000000E+00  0.00000000E+00  0.00000000E+00
  0.00000000E+00  0.00000000E+00  0.00000000E+00  0.00000000E+00  3.98940088E-03
  3.03177067E-02  1.29880029E-01  3.27951072E-01  4.53527100E-01  2.52154056E-01
 -1.42993147E-02  3.23572333E-01  7.43507765E-01  1.00000000E+00  0.00000000E+00
  0.00000000E+00  0.00000000E+00  0.00000000E+00  0.00000000E+00  0.00000000E+00
  0.00000000E+00  0.00000000E+00  0.00000000E+00  0.00000000E+00  0.00000000E+00
  0.00000000E+00  0.00000000E+00  0.00000000E+00  0.00000000E+00  0.00000000E+00
  0.00000000E+00  0.00000000E+00  0.00000000E+00  0.00000000E+00  0.00000000E+00
  0.00000000E+00  0.00000000E+00  0.00000000E+00  0.00000000E+00  0.00000000E+00
  0.00000000E+00  0.00000000E+00  0.00000000E+00  0.00000000E+00  0.00000000E+00
  0.00000000E+00
Coordinates of each shell                  R   N=          81
  3.08960905E-01  5.48384453E-03  1.82135304E-02  3.08960905E-01  5.48384453E-03
  1.82135304E-02  3.08960905E-01  5.48384453E-03  1.82135304E-02  3.08960905E-01
  5.48384453E-03  1.82135304E-02  1.01488461E+00  1.85914236E+00  5.50739040E-01
  1.01488461E+00  1.85914236E+00  5.50739040E-01  1.01667640E+00 -1.37714046E+00
  1.36192545E+00  1.01667640E+00 -1.37714046E+00  1.36192545E+00  1.03753716E+00
 -4.61356375E-01 -1.84429304E+00  1.03753716E+00 -4.61356375E-01 -1.84429304E+00
  6.35760978E+00 -1.17256863E-03 -3.91118385E-03  6.35760978E+00 -1.17256863E-03
 -3.91118385E-03  6.35760978E+00 -1.17256863E-03 -3.91118385E-03  6.35760978E+00
 -1.17256863E-03 -3.91118385E-03  6.35760978E+00 -1.17256863E-03 -3.91118385E-03
 -3.22863514E+00 -9.60426415E-04 -3.17607163E-03 -3.22863514E+00 -9.60426415E-04
 -3.17607163E-03 -3.22863514E+00 -9.60426415E-04 -3.17607163E-03 -3.22863514E+00
 -9.60426415E-04 -3.17607163E-03 -3.22863514E+00 -9.60426415E-04 -3.17607163E-03
 -3.22863514E+00 -9.60426415E-04 -3.17607163E-03 -3.22863514E+00 -9.60426415E-04
 -3.17607163E-03 -3.22863514E+00 -9.60426415E-04 -3.17607163E-03 -3.22863514E+00
 -9.60426415E-04 -3.17607163E-03 -3.22863514E+00 -9.60426415E-04 -3.17607163E-03
 -3.22863514E+00 -9.60426415E-04 -3.17607163E-03 -3.22863514E+00 -9.60426415E-04
 -3.17607163E-03
Constraint Structure                       R   N=          18
  3.08960905E-01  5.48384453E-03  1.82135304E-02  1.01488461E+00  1.85914236E+00
  5.50739040E-01  1.01667640E+00 -1.37714046E+00  1.36192545E+00  1.03753716E+00
 -4.61356375E-01 -1.84429304E+00  6.35760978E+00 -1.17256863E-03 -3.91118385E-03
 -3.22863514E+00 -9.60426415E-04 -3.17607163E-03
Num ILSW                                   I              100
ILSW                                       I   N=         100
           0           1           0           0           2           0
           0           0           0           0         402          -1
           0           0           0           0           2           0
           0           0           0           0           1           0
           1           0           0           0           0           0
           0           0      100000           0          -1           0
           0           0           0           0           0           0
           0           0           0           1           0           0
           0           0           1           0           0           0
           0           0           4          40           0           0
           0           0           5           0           0           0
           0           0           0           0           0           0
           0           0           0           0           0           0
           0           0           0           0           0           0
           0           0           0           0           0           0
           0           0           0           0           0           0
           0           0           0           0
Num RLSW                                   I               40
RLSW                                       R   N=          40
  8.00000000E-01  7.20000000E-01  1.00000000E+00  8.10000000E-01  2.00000000E-01
  0.00000000E+00  0.00000000E+00  1.00000000E+00  0.00000000E+00  0.00000000E+00
  0.00000000E+00  0.00000000E+00  1.00000000E+00  0.00000000E+00  0.00000000E+00
  0.00000000E+00  0.00000000E+00  1.00000000E+00  0.00000000E+00  0.00000000E+00
  0.00000000E+00  0.00000000E+00  1.00000000E+00  0.00000000E+00  0.00000000E+00
  0.00000000E+00  0.00000000E+00  1.00000000E+00  0.00000000E+00  0.00000000E+00
  0.00000000E+00  0.00000000E+00  1.00000000E+00  0.00000000E+00  0.00000000E+00
  0.00000000E+00  0.00000000E+00  0.00000000E+00  1.00000000E+00  1.00000000E+00
MxBond                                     I                5
NBond                                      I   N=           6
           5           2           2           2           1           4
IBond                                      I   N=          30
           2           3           4           5           6           1
           6           0           0           0           1           6
           0           0           0           1           6           0
           0           0           1           0           0           0
           0           1           2           3           4           0
RBond                                      R   N=          30
  1.00000000E+00  1.00000000E+00  1.00000000E+00  1.00000000E+00  1.00000000E-01
  1.00000000E+00  1.00000000E-01  0.00000000E+00  0.00000000E+00  0.00000000E+00
  1.00000000E+00  1.00000000E-01  0.00000000E+00  0.00000000E+00  0.00000000E+00
  1.00000000E+00  1.00000000E-01  0.00000000E+00  0.00000000E+00  0.00000000E+00
  1.00000000E+00  0.00000000E+00  0.00000000E+00  0.00000000E+00  0.00000000E+00
  1.00000000E-01  1.00000000E-01  1.00000000E-01  1.00000000E-01  0.00000000E+00
Virial Ratio                               R      2.005677093761727E+00
SCF Energy                                 R     -3.071883160492921E+03
Total Energy                               R     -3.071883160492921E+03
RMS Force                                  R      1.498403381192674E-02
RMS Density                                R      1.343972085000181E-10
External E-field                           R   N=          35
  0.00000000E+00  0.00000000E+00  0.00000000E+00  0.00000000E+00  0.00000000E+00
  0.00000000E+00  0.00000000E+00  0.00000000E+00  0.00000000E+00  0.00000000E+00
  0.00000000E+00  0.00000000E+00  0.00000000E+00  0.00000000E+00  0.00000000E+00
  0.00000000E+00  0.00000000E+00  0.00000000E+00  0.00000000E+00  0.00000000E+00
  0.00000000E+00  0.00000000E+00  0.00000000E+00  0.00000000E+00  0.00000000E+00
  0.00000000E+00  0.00000000E+00  0.00000000E+00  0.00000000E+00  0.00000000E+00
  0.00000000E+00  0.00000000E+00  0.00000000E+00  0.00000000E+00  0.00000000E+00
IOpCl                                      I                0
IROHF                                      I                0
Alpha Orbital Energies                     R   N=          70
 -4.82768499E+02 -1.01215691E+02 -6.17317986E+01 -5.62523290E+01 -5.62490338E+01
 -5.62490337E+01 -1.00766621E+01 -9.12768026E+00 -8.44472770E+00 -6.88595072E+00
 -6.88548448E+00 -6.88548013E+00 -6.39777144E+00 -6.38641961E+00 -6.38641951E+00
 -2.51383750E+00 -2.51042183E+00 -2.51042160E+00 -2.50136761E+00 -2.50136744E+00
 -6.76285006E-01 -5.15291547E-01 -4.66441300E-01 -2.89970022E-01 -2.89662228E-01
 -2.56235299E-01 -1.44882417E-01 -1.44844256E-01 -1.59683002E-02 -1.43827860E-02
 -1.43622334E-02  1.73521630E-01  2.64857065E-01  3.01296415E-01  3.01753810E-01
  4.03502434E-01  5.64518691E-01  5.69307355E-01  5.69353473E-01  6.01448783E-01
  6.01463315E-01  6.33379226E-01  6.33451058E-01  6.33505209E-01  7.06288157E-01
  7.15862277E-01  7.16435901E-01  8.23874826E-01  8.24292887E-01  9.18279410E-01
  9.57321027E-01  1.03606305E+00  1.03629883E+00  1.14235972E+00  1.19453191E+00
  1.19465212E+00  1.19894505E+00  1.19935617E+00  1.22669485E+00  1.38797163E+00
  1.68946583E+00  1.86606830E+00  1.86616281E+00  2.31244799E+00  2.37695238E+00
  2.37711967E+00  4.28560797E+00  4.54025544E+00  8.72735260E+00  7.27283429E+01
Alpha MO coefficients                      R   N=        4900
 -6.93699207E-06 -1.36345649E-04  3.22639076E-04  6.15073224E-07  2.00855124E-06
 -3.40659394E-05 -6.42251583E-04 -1.35836716E-06 -4.20788904E-06  2.50452069E-05
 -3.38989977E-05 -3.36659977E-05  1.39312613E-07  4.34331374E-07  4.08473286E-08
  3.41965908E-05  4.07204317E-04  3.41647742E-05  4.07065642E-04  3.38678576E-05
  4.07296772E-04  6.44334931E-07  1.22988812E-06  5.72156442E-06  1.91009287E-08
  5.99387301E-08  1.18420516E-05 -2.57314667E-05 -1.06410389E-07 -3.35158842E-07
 -3.40381183E-05  3.45859246E-05  2.66369087E-07  8.44662345E-07  1.12688582E-05
  5.47274477E-06  5.42096430E-06 -5.89558006E-08 -1.89542101E-07 -1.39361961E-08
  9.94746264E-01  3.18041854E-02 -4.17513347E-02 -4.19309019E-02 -2.40624488E-02
 -1.79310071E-02  1.46705068E-05  2.71758075E-08  9.16200816E-08 -3.87452989E-05
 -7.43158749E-08 -2.39626837E-07  1.60494581E-04  3.10214174E-07  9.92938121E-07
 -5.82704048E-04 -1.08434468E-06 -3.54895722E-06  3.98529428E-02  3.98421431E-02
  3.98421335E-02  2.30259380E-08  7.48962853E-08 -1.16340424E-09  9.91216613E-03
  1.00439517E-02  1.00440154E-02 -2.75876200E-07 -9.11275423E-07  7.28639756E-09
 -4.56327168E-06 -3.17023533E-06  5.10312356E-06 -6.33502535E-09 -2.67200326E-08
  1.43357043E-04 -5.41287296E-05 -1.63474534E-07 -4.86184288E-07 -1.93143843E-05
 -1.03655852E-05 -1.01169870E-05  1.12245987E-08  4.18388486E-08  6.56860473E-08
  9.75913480E-06 -6.43679269E-05  9.73180621E-06 -6.44481381E-05  9.36279066E-06
 -6.54755346E-05  9.96000344E-01  1.51573658E-02 -7.27434062E-06  1.19566460E-08
 -3.50794903E-11 -2.10111989E-02  2.37664529E-05 -6.85218756E-09 -1.76219174E-08
  1.60214388E-03 -4.51578979E-05  1.23017002E-09  1.77644027E-08  7.55183268E-03
  7.54741047E-03  7.54742232E-03  2.34619500E-09  4.90050160E-09  5.26758856E-09
 -1.62635018E-06 -9.93214327E-06  3.16557204E-05  2.98399816E-05  1.53496190E-05
  1.74180874E-05 -6.92109581E-07 -5.82600952E-10 -1.76660390E-09  2.82854585E-06
  2.42203399E-09  7.35023662E-09 -1.45908965E-05 -1.47660831E-08 -4.42213725E-08
 -1.95292568E-05 -4.79469786E-08 -1.80857339E-07 -3.34119480E-05 -3.40773027E-05
 -3.40806412E-05  1.80830937E-09  7.68415789E-09 -9.99598170E-10 -3.55259648E-05
 -2.03378660E-05 -2.03167675E-05 -3.20300120E-08 -1.20240720E-07  6.37546164E-09
 -6.74016827E-05 -1.14756911E-03  2.81286888E-03  5.36412080E-06  1.75235413E-05
 -2.13554807E-04 -5.61699530E-03 -1.18825776E-05 -3.68671386E-05  1.42921204E-04
 -3.01213170E-04 -2.99224325E-04  1.05913858E-06  3.28810921E-06  3.49780172E-07
  2.87625230E-04  3.55519105E-03  2.87355252E-04  3.55397430E-03  2.84783316E-04
  3.55587104E-03  5.98706020E-06  1.04370586E-05  4.94055474E-05  1.65047934E-07
  5.18478741E-07  1.08341703E-04 -2.23767810E-04 -9.23117881E-07 -2.91009376E-06
 -2.97899433E-04  3.03179934E-04  2.31562694E-06  7.34702662E-06  9.49433588E-05
  4.60105375E-05  4.55691968E-05 -5.02180184E-07 -1.61454306E-06 -1.18685957E-07
 -4.21716747E-01  1.16517257E+00 -2.72822133E-01 -3.95599822E-01 -2.10126744E-01
 -1.56822738E-01  1.00145104E-03  1.62887128E-06  6.32574388E-06 -2.32143963E-04
 -4.82538427E-07 -1.41183654E-06  1.37439274E-03  2.68706862E-06  8.47177604E-06
 -5.10646823E-03 -9.52768433E-06 -3.10624522E-05  3.54162080E-01  3.54017631E-01
  3.54017550E-01  3.05740063E-07  9.98502647E-07 -1.06458824E-08  8.65063892E-02
  8.76654218E-02  8.76659766E-02 -2.43257051E-06 -8.00125130E-06  7.23280960E-08
 -1.60924392E-04 -2.77588740E-03 -8.73075897E-04 -1.79911591E-06 -5.69282681E-06
  3.51106944E-03 -9.41337252E-04 -2.44884039E-07 -3.65943685E-06  3.19025625E-03
 -5.06471931E-04 -5.08091609E-04  8.09752416E-06  2.66772498E-05 -2.69670349E-07
  2.02206339E-04 -1.70220312E-03  2.02841743E-04 -1.70145236E-03  2.08189583E-04
 -1.71019925E-03 -5.77414666E-06 -5.83792801E-05 -6.76274015E-05  2.88495467E-08
  1.01639596E-07 -1.19032501E-04  3.55598396E-04 -1.26606271E-07 -4.54090175E-07
  7.34642581E-04 -7.64833912E-04  1.05521729E-07  4.40568808E-07 -1.06522234E-04
 -1.98077916E-04 -1.97846960E-04  4.59049412E-08  1.31781009E-07  6.31190830E-08
  3.17801101E-04 -1.70137181E-03  2.31028387E-03  1.20629287E-03 -2.37847018E-04
  6.70733910E-03  9.76990474E-01  1.74351144E-03  5.81630862E-03  6.15486226E-02
  1.09829658E-04  3.66351668E-04 -1.91991394E-02 -3.41868456E-05 -1.13902843E-04
  7.63973979E-03  1.32252634E-05  4.42184285E-05 -2.00192575E-03 -2.17796298E-03
 -2.17795724E-03  3.92955454E-07  1.33075048E-06 -4.79443000E-09 -3.84888974E-03
 -2.54842769E-03 -2.54848707E-03 -2.99724708E-06 -9.75773121E-06  2.70555509E-08
 -1.48962994E-07 -7.36933724E-07 -1.82947236E-06  2.43514327E-05  7.47769772E-05
  8.18000175E-07  1.22071006E-05 -2.38692825E-04 -7.32921358E-04  9.83135545E-07
 -5.27286203E-05  5.12244532E-05 -4.86488284E-05 -1.49511674E-04  2.68082468E-05
  1.76086136E-04 -3.42026448E-04  1.37940617E-04 -2.67467748E-04 -3.18215637E-04
  6.07886332E-04  3.66705878E-08  5.82419401E-07  5.68983548E-07  4.43884662E-06
  1.36185486E-05  8.07553558E-07 -3.11645423E-06 -2.21200203E-05 -6.78806178E-05
 -6.65972339E-06  7.37576967E-06  4.10449707E-05  1.26052894E-04  7.05948298E-07
  3.06178038E-06  8.48804078E-07 -3.94802236E-06 -1.21655191E-05 -5.64900916E-07
  9.73347235E-08 -4.77072121E-07  5.35753936E-07  5.05239735E-07 -2.19230289E-06
  8.50276599E-06 -6.07093504E-03  3.03277920E-01  9.28855655E-01 -3.79929960E-04
  1.89765866E-02  5.81199890E-02  1.11367243E-04 -5.55449649E-03 -1.70118762E-02
 -4.48337994E-05  2.41544504E-03  7.39804428E-03 -8.40702451E-07 -2.76634245E-06
  1.90608920E-06  4.66376837E-06  1.42521717E-05  1.21406546E-06 -2.60788863E-06
  1.41173679E-05 -1.47241726E-05  7.82831679E-05  2.40018565E-04 -7.12058964E-06
 -4.47622355E-08 -1.91748241E-07  2.98343051E-08  7.45258148E-05 -2.43967780E-05
  1.11385965E-06 -1.66674531E-07 -7.30028568E-04  2.38970096E-04 -7.58149020E-08
 -2.38949418E-05  2.37926592E-05 -1.48171177E-04  4.85474358E-05 -6.12184237E-05
  2.62211710E-04 -5.07522916E-04 -2.84618165E-04  5.49234746E-04  2.22281785E-05
 -4.26186208E-05 -9.54967061E-10 -1.01450661E-08 -1.19771801E-08  1.35334302E-05
 -4.42647472E-06 -2.09963995E-08  6.32535851E-08 -6.74087924E-05  2.20529906E-05
  1.28036053E-07 -1.40943012E-07  1.24876717E-04 -4.08855465E-05 -1.46960445E-08
  4.91582512E-07 -5.60604969E-07 -1.19263869E-05  3.91823016E-06  1.33800039E-06
 -1.28298185E-07  2.79395306E-07  9.18436241E-08  5.22675464E-08  7.93253035E-08
 -1.27226257E-08  1.47880903E-04  9.28873858E-01 -3.03282897E-01  9.26551011E-06
  5.81211288E-02 -1.89768973E-02 -2.76134239E-06 -1.70121988E-02  5.55458584E-03
  1.05335780E-06  7.39782329E-03 -2.41550253E-03 -6.84634033E-08 -1.06773612E-06
  8.80047731E-07  1.43217336E-05 -4.66587076E-06 -2.52002733E-06 -9.53392733E-08
  7.71462243E-06 -7.88036148E-06  2.39482346E-04 -7.82773171E-05  1.93226868E-05
  9.92881833E-01  4.98726842E-02 -8.05514856E-04 -1.11164966E-07 -2.08104666E-07
 -1.53344351E-02  1.03145998E-03  1.08949052E-06  3.52154854E-06 -9.46666062E-03
 -9.17595207E-03 -9.17607179E-03 -6.86887589E-07 -2.16253344E-06 -2.25176168E-08
 -7.42970222E-05  2.49543416E-03 -7.42814781E-05  2.49538432E-03 -7.39227011E-05
  2.49528993E-03  1.43286993E-06  7.16555024E-06  6.75384769E-06  6.52750735E-08
  1.91871897E-07  6.08333847E-05 -3.15256152E-05 -3.99087797E-07 -1.18531927E-06
 -1.42210125E-04  7.99933143E-05  1.04270387E-06  3.15030530E-06  1.54450474E-05
  6.82399327E-06  6.55062920E-06 -2.10520725E-07 -6.56949192E-07 -7.25166908E-08
 -4.97716874E-07 -5.24574146E-05  1.71500921E-04 -8.63848584E-05 -1.36659605E-03
  5.60729997E-03 -1.01087619E-05 -1.45142724E-08 -5.64089402E-08  3.03206797E-05
  4.16709915E-08  1.66202808E-07  7.74289067E-05  2.42947631E-07  6.27066690E-07
  2.06365956E-03  3.50325032E-06  1.21826153E-05 -1.02926900E-04 -9.67988181E-05
 -9.68580662E-05  1.24397965E-08  4.52313575E-09 -1.05200251E-08 -6.01907735E-04
 -9.44598267E-04 -9.44168142E-04  5.55226690E-07  2.13360218E-06  7.76509316E-08
  3.93644755E-05  1.70058141E-04 -3.02698440E-04 -5.56758991E-07 -1.67389457E-06
 -1.89779086E-03  1.74065958E-03  5.47453861E-06  1.73857347E-05 -6.04599701E-05
  1.14879785E-04  1.13850158E-04 -7.92139011E-07 -2.55500073E-06 -2.78604579E-07
 -2.28882235E-04  6.02164826E-04 -2.29280255E-04  6.04501893E-04 -2.34072610E-04
  6.37483023E-04 -2.84703609E-01  1.02232032E+00 -2.70831949E-04  2.46396076E-06
 -1.82139243E-06  7.32590932E-02 -3.74166186E-04  3.66911225E-07  1.94142520E-07
 -1.20352055E-02  7.37851323E-04 -2.26337615E-07 -6.72053866E-07 -1.64228151E-02
 -1.63757313E-02 -1.63757190E-02 -2.30134123E-08 -5.04260070E-08 -3.30076167E-07
  3.27050475E-07  4.53218892E-05 -1.22073986E-04 -2.60173509E-05 -4.85087578E-04
  1.42761536E-03  1.23294181E-05 -3.08116722E-09 -1.00594960E-08 -4.15924238E-05
  1.02898051E-08  3.37806155E-08  1.81726944E-04 -1.02422910E-07 -3.54353676E-07
  9.04160085E-04  2.25179247E-06  7.64728380E-06  5.76206398E-05  1.02054197E-04
  1.02193858E-04 -1.20895606E-07 -4.16125904E-07  3.79081302E-08  4.26741282E-04
 -1.37263566E-04 -1.38202527E-04  1.31176451E-06  4.48739575E-06 -2.54949079E-07
  7.59132335E-05  1.55297653E-03 -4.08306538E-03 -7.79077722E-06 -2.55208513E-05
 -4.07085751E-04  8.34746296E-03  1.76454119E-05  5.53649201E-05  2.22167102E-04
  4.12900824E-04  4.10380866E-04 -5.16687424E-07 -1.53051511E-06 -4.52941347E-07
 -3.39261494E-04 -5.18026174E-03 -3.38931735E-04 -5.17845639E-03 -3.35443065E-04
 -5.17976713E-03 -1.43032318E-05  8.49223661E-06 -5.66934642E-05 -2.07363438E-07
 -6.56286069E-07 -1.84066092E-04  3.06559365E-04  1.30664040E-06  4.14073873E-06
  4.15865988E-04 -4.28363062E-04 -3.31513322E-06 -1.05531346E-05 -1.10327442E-04
 -4.97913875E-05 -4.92478540E-05  6.22221546E-07  2.00051114E-06  1.45357654E-07
  1.67918132E-01 -9.39107739E-01  8.62097677E-01  1.24534374E+00  3.04137067E-01
  2.30653243E-01 -2.76869642E-03 -4.73159258E-06 -1.76272432E-05  6.85040489E-03
  1.17426393E-05  4.35648007E-05 -1.61108277E-03 -3.38749852E-06 -9.52476891E-06
  7.63365842E-03  1.44704959E-05  4.61043403E-05 -4.34811563E-01 -4.36870342E-01
 -4.36870163E-01  4.27309647E-06  1.43839288E-05  7.27229534E-08 -1.25356610E-01
 -1.27233472E-01 -1.27234291E-01  4.02198045E-06  1.29014517E-05 -1.98145594E-07
 -2.15157391E-05 -1.00798952E-04  4.67558856E-04  5.26164980E-07  1.48758762E-06
  1.98700139E-03 -2.90397248E-03 -7.10257732E-06 -2.10902941E-05  1.03072082E-04
 -8.36335586E-05 -8.16448178E-05  1.17457221E-06  3.66574727E-06  5.31580875E-07
  3.44485176E-04 -7.43397578E-04  3.45260009E-04 -7.48191683E-04  3.48391733E-04
 -7.86360444E-04 -1.10540582E-04  2.97709925E-04  9.90998792E-01 -3.88920954E-04
 -4.75623467E-03 -3.01566393E-04  2.87183124E-02 -1.13496774E-05 -1.36220067E-04
  1.04549877E-03 -8.71200837E-03  3.48211017E-06  3.83394547E-05 -1.31544786E-04
 -2.11711432E-04 -2.11492285E-04  1.07943873E-07 -2.29785127E-07  3.92322769E-07
 -6.17634368E-06 -2.65784779E-05  1.33331373E-04 -2.44633902E-05  6.58681939E-04
 -2.07747109E-03 -1.17989781E-05  5.46423691E-09  8.36530135E-09  4.58981750E-05
 -1.96811559E-08 -2.77457131E-08 -2.77336029E-04  1.99814731E-07  4.26342122E-07
 -1.31060789E-03 -3.65657211E-06 -1.19910769E-05 -5.61995325E-05 -1.18126108E-04
 -1.18288060E-04  1.97845798E-07  6.59239245E-07 -3.83637129E-08 -6.12906438E-04
  1.86757054E-04  1.87859049E-04 -2.11628929E-06 -7.11754915E-06  2.60254014E-07
 -8.53747656E-07 -3.29164384E-06 -2.00559630E-06 -5.04741094E-06  1.87369092E-05
  2.49743434E-05  1.68150128E-05  1.52276714E-04 -4.22628210E-04 -2.93774675E-06
 -2.86917857E-06  1.25564764E-06 -1.35211001E-05  3.20026290E-05  2.18167376E-06
  2.59628665E-05 -1.16196569E-04 -2.29577253E-04  1.03573234E-03  2.01877777E-04
 -9.57703581E-04 -1.24384268E-06  4.16807053E-06  4.26807296E-03 -3.69587875E-01
  9.19631177E-01 -1.44361071E-06  1.22652518E-04 -1.04932597E-02  2.61124937E-02
  3.85384212E-06 -3.59599514E-05  2.82683644E-03 -7.04009351E-03 -1.54564551E-07
 -1.46671853E-06 -4.04793700E-08  5.45761609E-06 -1.20681095E-05  2.22601144E-06
 -6.61366739E-08 -2.66174100E-07  1.34773606E-06 -1.61670259E-07 -6.37818513E-06
  2.13248584E-05 -4.92545193E-08 -1.01811023E-06  2.54720018E-06  1.96444230E-07
  3.91515181E-06 -9.79468094E-06 -1.68512332E-06 -2.65773733E-05  6.60339912E-05
  7.11853512E-06  3.87673478E-05 -9.01850954E-05 -1.25876505E-06  9.62357142E-07
 -2.74914818E-06 -1.73217196E-06  3.83219067E-06 -4.32608434E-06 -2.56301667E-06
 -1.83066625E-05  7.53783789E-06  8.45513545E-06 -1.63242784E-05  2.99909607E-05
 -6.98147660E-07 -2.67783588E-06 -2.27488017E-06  1.53562698E-05  8.65204005E-06
  1.85566689E-05  1.75983493E-05 -3.98668627E-04 -1.77757462E-04 -2.58897002E-06
 -2.65008668E-06  1.46535631E-06  3.28909005E-05  1.25543277E-05  1.68627168E-07
 -2.50526889E-04  1.12476189E-03  1.01667004E-04 -4.59448954E-04  1.46006138E-04
 -6.94049159E-04  2.65336713E-07 -1.12936644E-06  2.13450862E-03  9.19641479E-01
  3.69581759E-01 -3.69660065E-07  6.10838442E-05  2.61106371E-02  1.04942510E-02
  1.70122947E-06 -1.76144479E-05 -7.03650952E-03 -2.83029149E-03 -3.67111419E-07
 -1.52361850E-06  1.12642396E-06 -1.22791109E-05 -4.32773850E-06 -1.03724328E-06
 -4.59738905E-08 -1.82433356E-07  9.24791688E-07 -9.54765959E-08 -5.91059989E-06
  1.97328017E-05 -2.42945493E-08  2.54005984E-06  1.02634351E-06  9.85395085E-08
 -9.76756296E-06 -3.94647157E-06 -9.91551864E-07  6.61025648E-05  2.65250704E-05
  7.35976190E-06 -9.36657997E-05 -3.51052679E-05 -9.49435149E-07  3.17475954E-06
 -4.33043681E-06  4.09734207E-06  1.45382137E-06  2.05841688E-06 -1.28573593E-06
 -3.05813883E-05  2.14705753E-05 -1.89321164E-05 -5.70594908E-06 -1.42103574E-05
  6.71121187E-05  1.59811367E-03  6.58300747E-04  1.35073181E-06  4.31386536E-06
 -2.43809394E-03  3.82412161E-04 -4.37273969E-07  6.16323680E-07 -1.77099255E-03
  3.40143398E-04  3.41196334E-04 -4.59009616E-06 -1.51479324E-05  1.72670623E-07
 -6.85418083E-05  1.31863288E-03 -6.89880329E-05  1.31801772E-03 -7.24689300E-05
  1.32323932E-03  6.16655122E-06  2.87993873E-05  6.41184174E-05 -2.14029221E-08
 -7.77314480E-08  1.33464630E-04 -2.41375869E-04  5.18605248E-08  2.00606624E-07