 Entering Gaussian System, Link 0=g09
 Input=ts-irc-both.com
 Output=ts-irc-both.log
 Initial command:
 /Users/talipovmr/usr/local/g09/l1.exe /tmp/Gau-27704.inp -scrdir=/tmp/
 Entering Link 1 = /Users/talipovmr/usr/local/g09/l1.exe PID=     27705.
  
 Copyright (c) 1988,1990,1992,1993,1995,1998,2003,2009, Gaussian, Inc.
                  All Rights Reserved.
  
 This is part of the Gaussian(R) 09 program.  It is based on
 the Gaussian(R) 03 system (copyright 2003, Gaussian, Inc.),
 the Gaussian(R) 98 system (copyright 1998, Gaussian, Inc.),
 the Gaussian(R) 94 system (copyright 1995, Gaussian, Inc.),
 the Gaussian 92(TM) system (copyright 1992, Gaussian, Inc.),
 the Gaussian 90(TM) system (copyright 1990, Gaussian, Inc.),
 the Gaussian 88(TM) system (copyright 1988, Gaussian, Inc.),
 the Gaussian 86(TM) system (copyright 1986, Carnegie Mellon
 University), and the Gaussian 82(TM) system (copyright 1983,
 Carnegie Mellon University). Gaussian is a federally registered
 trademark of Gaussian, Inc.
  
 This software contains proprietary and confidential information,
 including trade secrets, belonging to Gaussian, Inc.
  
 This software is provided under written license and may be
 used, copied, transmitted, or stored only in accord with that
 written license.
  
 The following legend is applicable only to US Government
 contracts under FAR:
  
                    RESTRICTED RIGHTS LEGEND
  
 Use, reproduction and disclosure by the US Government is
 subject to restrictions as set forth in subparagraphs (a)
 and (c) of the Commercial Computer Software - Restricted
 Rights clause in FAR 52.227-19.
  
 Gaussian, Inc.
 340 Quinnipiac St., Bldg. 40, Wallingford CT 06492
  
  
 ---------------------------------------------------------------
 Warning -- This program may not be used in any manner that
 competes with the business of Gaussian, Inc. or will provide
 assistance to any competitor of Gaussian, Inc.  The licensee
 of this program is prohibited from giving any competitor of
 Gaussian, Inc. access to this program.  By using this program,
 the user acknowledges that Gaussian, Inc. is engaged in the
 business of creating and licensing software in the field of
 computational chemistry and represents and warrants to the
 licensee that it is not a competitor of Gaussian, Inc. and that
 it will not use this program in any manner prohibited above.
 ---------------------------------------------------------------
  

 Cite this work as:
 Gaussian 09, Revision A.02,
 M. J. Frisch, G. W. Trucks, H. B. Schlegel, G. E. Scuseria, 
 M. A. Robb, J. R. Cheeseman, G. Scalmani, V. Barone, B. Mennucci, 
 G. A. Petersson, H. Nakatsuji, M. Caricato, X. Li, H. P. Hratchian, 
 A. F. Izmaylov, J. Bloino, G. Zheng, J. L. Sonnenberg, M. Hada, 
 M. Ehara, K. Toyota, R. Fukuda, J. Hasegawa, M. Ishida, T. Nakajima, 
 Y. Honda, O. Kitao, H. Nakai, T. Vreven, J. A. Montgomery, Jr., 
 J. E. Peralta, F. Ogliaro, M. Bearpark, J. J. Heyd, E. Brothers, 
 K. N. Kudin, V. N. Staroverov, R. Kobayashi, J. Normand, 
 K. Raghavachari, A. Rendell, J. C. Burant, S. S. Iyengar, J. Tomasi, 
 M. Cossi, N. Rega, J. M. Millam, M. Klene, J. E. Knox, J. B. Cross, 
 V. Bakken, C. Adamo, J. Jaramillo, R. Gomperts, R. E. Stratmann, 
 O. Yazyev, A. J. Austin, R. Cammi, C. Pomelli, J. W. Ochterski, 
 R. L. Martin, K. Morokuma, V. G. Zakrzewski, G. A. Voth, 
 P. Salvador, J. J. Dannenberg, S. Dapprich, A. D. Daniels, 
 O. Farkas, J. B. Foresman, J. V. Ortiz, J. Cioslowski, 
 and D. J. Fox, Gaussian, Inc., Wallingford CT, 2009.
 
 ******************************************
 Gaussian 09:  EM64M-G09RevA.02 11-Jun-2009
                14-Jan-2013 
 ******************************************
 %nproc=2
 Will use up to    2 processors via shared memory.
 %mem=2Gb
 %chk=ts-irc-both.chk
 ----------------------------------------------------------------------
 #p ub3lyp/cbsb7 irc(calcfc,forward,reverse) scf(xqc,maxcyc=200,fermi) 
 #p geom(allcheck) guess(read)
 ----------------------------------------------------------------------
 1/10=4,14=-1,18=20,22=3,26=3,29=7,38=1,44=3/1,23;
 2/9=110,12=2,29=1,40=1/2;
 3/5=4,6=6,7=700,11=2,14=-4,16=1,25=1,30=1,71=2,74=-5,116=2/1,2,3;
 4/5=1/1;
 5/5=2,7=200,8=3,13=1,22=13,38=6/2,8;
 8/6=4,10=90,11=11/1;
 11/6=1,8=1,9=11,15=111,16=1/1,2,10;
 10/6=1,7=6,13=1/2;
 6/7=2,8=2,9=2,10=2,28=1/1;
 7/10=1,18=20,25=1/1,2,3,16;
 1/10=4,14=-1,18=20,22=3,44=3/23(3);
 2/9=110,29=1/2;
 7/9=1,25=1,44=-1/16;
 99//99;
 2/9=110,29=1/2;
 3/5=4,6=6,7=700,11=2,14=-2,16=1,25=1,30=1,71=2,74=-5,116=2/1,2,3;
 4/5=5,16=3/1;
 5/5=2,7=200,8=3,13=1,22=13,38=5/2,8;
 8/6=4,10=90,11=11/1;
 11/6=1,8=1,9=11,15=111,16=1/1,2,10;
 10/6=1,7=6,13=1/2;
 7/10=1,18=20,25=1/1,2,3,16;
 1/14=-1,18=20,22=3,44=3/23(-8);
 2/9=110,29=1/2;
 6/7=2,8=2,9=2,10=2,19=2,28=1/1;
 7/9=1,25=1,44=-1/16;
 99/9=1/99;
 Leave Link    1 at Mon Jan 14 18:27:19 2013, MaxMem=  268435456 cpu:       0.4
 (Enter /Users/talipovmr/usr/local/g09/l101.exe)

 

 Redundant internal coordinates taken from checkpoint file:
 ts-irc-both.chk
 Charge =  0 Multiplicity = 1
 O,0,0.0945264649,1.031660354,0.
 N,0,1.120746836,0.5606228913,0.
 O,0,-0.7996594718,-1.1950070822,0.
 H,0,-1.5444378184,-1.8203572394,0.
 Recover connectivity data from disk.
                    Isotopes and Nuclear Properties:
 (Nuclear quadrupole moments (NQMom) in fm**2, nuclear magnetic moments (NMagM)
  in nuclear magnetons)

  Atom         1           2           3           4
 IAtWgt=          16          14          16           1
 AtmWgt=  15.9949146  14.0030740  15.9949146   1.0078250
 NucSpn=           0           2           0           1
 AtZEff=  -5.6000000  -4.5500000  -5.6000000  -1.0000000
 NQMom=    0.0000000   2.0440000   0.0000000   0.0000000
 NMagM=    0.0000000   0.4037610   0.0000000   2.7928460
 Leave Link  101 at Mon Jan 14 18:27:19 2013, MaxMem=  268435456 cpu:       0.2
 (Enter /Users/talipovmr/usr/local/g09/l123.exe)
 IRC-IRC-IRC-IRC-IRC-IRC-IRC-IRC-IRC-IRC-IRC-IRC-IRC-IRC-IRC-IRC-IRC-IRC
 ------------------------------------------------------------------------
 INPUT DATA FOR L123
 ------------------------------------------------------------------------
 GENERAL PARAMETERS:
 Follow reaction path in both directions.
 Maximum points per path      =  10
 Step size                    =   0.100 bohr
 Integration scheme           = HPC                                 
    Redo corrector integration= Yes                                 
    Max correction cycles     =  20
 Initial Hessian              = CalcFC
 Hessian eveluation           = All updating
    Hessian updating method   = Bofill                              
 ------------------------------------------------------------------------
 IRC-IRC-IRC-IRC-IRC-IRC-IRC-IRC-IRC-IRC-IRC-IRC-IRC-IRC-IRC-IRC-IRC-IRC
 Leave Link  123 at Mon Jan 14 18:27:19 2013, MaxMem=  268435456 cpu:       0.0
 (Enter /Users/talipovmr/usr/local/g09/l202.exe)
                          Input orientation:                          
 ---------------------------------------------------------------------
 Center     Atomic      Atomic             Coordinates (Angstroms)
 Number     Number       Type             X           Y           Z
 ---------------------------------------------------------------------
      1          8           0        0.094526    1.031660    0.000000
      2          7           0        1.120747    0.560623    0.000000
      3          8           0       -0.799659   -1.195007    0.000000
      4          1           0       -1.544438   -1.820357    0.000000
 ---------------------------------------------------------------------
                    Distance matrix (angstroms):
                    1          2          3          4
     1  O    0.000000
     2  N    1.129161   0.000000
     3  O    2.399503   2.601960   0.000000
     4  H    3.289408   3.573832   0.972501   0.000000
 Symmetry turned off by external request.
 Stoichiometry    HNO2
 Framework group  CS[SG(HNO2)]
 Deg. of freedom     5
 Full point group                 CS      NOp   2
 Rotational constants (GHZ):     54.7502788      7.3973622      6.5168627
 Leave Link  202 at Mon Jan 14 18:27:19 2013, MaxMem=  268435456 cpu:       0.0
 (Enter /Users/talipovmr/usr/local/g09/l301.exe)
 Standard basis: 6-311G(2d,d,p) (5D, 7F)
 Ernie: Thresh=  0.10000D-02 Tol=  0.10000D-05 Strict=F.
 Integral buffers will be    131072 words long.
 Raffenetti 2 integral format.
 Two-electron integral symmetry is turned off.
    60 basis functions,   104 primitive gaussians,    63 cartesian basis functions
    12 alpha electrons       12 beta electrons
       nuclear repulsion energy        58.4241863934 Hartrees.
 IExCor=  402 DFT=T Ex+Corr=B3LYP ExCW=0 ScaHFX=  0.200000
 ScaDFX=  0.800000  0.720000  1.000000  0.810000 ScalE2=  1.000000  1.000000
 IRadAn=      0 IRanWt=     -1 IRanGd=            0 ICorTp=0
 NAtoms=    4 NActive=    4 NUniq=    4 SFac= 7.50D-01 NAtFMM=   80 NAOKFM=F Big=F
 Leave Link  301 at Mon Jan 14 18:27:19 2013, MaxMem=  268435456 cpu:       0.1
 (Enter /Users/talipovmr/usr/local/g09/l302.exe)
 NPDir=0 NMtPBC=     1 NCelOv=     1 NCel=       1 NClECP=     1 NCelD=      1
         NCelK=      1 NCelE2=     1 NClLst=     1 CellRange=     0.0.
 One-electron integrals computed using PRISM.
 NBasis=    60 RedAO= T  NBF=    60
 NBsUse=    60 1.00D-06 NBFU=    60
 Precomputing XC quadrature grid using
 IXCGrd= 2 IRadAn=           0 IRanWt=          -1 IRanGd=           0 AccXCQ= 1.00D-10.
 NRdTot=     250 NPtTot=       31868 NUsed=       33683 NTot=       33715
 NSgBfM=    63    63    63    63    63 NAtAll=     4     4.
 Leave Link  302 at Mon Jan 14 18:27:20 2013, MaxMem=  268435456 cpu:       0.4
 (Enter /Users/talipovmr/usr/local/g09/l303.exe)
 DipDrv:  MaxL=1.
 Leave Link  303 at Mon Jan 14 18:27:20 2013, MaxMem=  268435456 cpu:       0.1
 (Enter /Users/talipovmr/usr/local/g09/l401.exe)
 Initial guess read from the checkpoint file:  ts-irc-both.chk
 B after Tr=     0.051946    0.062773    0.000000
         Rot=    0.000000    0.033515    0.999438    0.000000 Ang= 180.00 deg.
 Guess basis will be translated and rotated to current coordinates.
 Initial guess <Sx>= 0.0000 <Sy>= 0.0000 <Sz>= 0.0000 <S**2>= 1.0187 S= 0.6264
 Leave Link  401 at Mon Jan 14 18:27:20 2013, MaxMem=  268435456 cpu:       0.3
 (Enter /Users/talipovmr/usr/local/g09/l502.exe)
 UHF open shell SCF:
 Requested convergence on RMS density matrix=1.00D-08 within 128 cycles.
 Requested convergence on MAX density matrix=1.00D-06.
 Requested convergence on             energy=1.00D-06.
 Level shift goal  0.100 maximum shift  0.100.
 No special actions if energy rises.
 Dynamic level shift is on during FON iterations.
 Using DIIS extrapolation, IDIIS=    10.
 Two-electron integral symmetry not used.
        33634 words used for storage of precomputed grid.
 Keep R1 and R2 ints in memory in canonical form, NReq=5010890.
 IEnd=       64451 IEndB=       64451 NGot=   268435456 MDV=   264325378
 LenX=   264325378 LenY=   264320968
 Symmetry not used in FoFDir.
 MinBra= 0 MaxBra= 2 Meth= 1.
 IRaf=       0 NMat=   1 IRICut=       1 DoRegI=T DoRafI=F ISym2E= 0 JSym2E=0.

 Cycle   1  Pass 1  IDiag  1:
 E= -205.654548199649    
 DIIS: error= 3.66D-02 at cycle   1 NSaved=   1.
 NSaved= 1 IEnMin= 1 EnMin= -205.654548199649     IErMin= 1 ErrMin= 3.66D-02
 ErrMax= 3.66D-02 EMaxC= 1.00D+00 BMatC= 2.56D-01 BMatP= 2.56D-01
 IDIUse=1 WtCom= 1.00D+00 WtEn= 0.00D+00
 Coeff-Com:  0.100D+01
 Coeff:      0.100D+01
 Gap=     7.161 Goal=     0.100 Shift=    0.000
 T= 1615. Gap= 0.060 NK=0 IS=    1 IE=   60
          NO(<0.9)=   0  NV(>0.1)=   0  12.00e < EF 0.00e >EF  Err=2.0D-11
 Gap=     7.777 Goal=     0.100 Shift=    0.000
 T= 1615. Gap= 0.265 NK=0 IS=    1 IE=   60
          NO(<0.9)=   0  NV(>0.1)=   0  12.00e < EF 0.00e >EF  Err=2.4D-12
 GapD=    7.161 DampG=2.000 DampE=0.500 DampFc=1.0000 IDamp=-1.
 RMSDP=3.73D-03 MaxDP=4.13D-02              OVMax= 3.03D-01

 Cycle   2  Pass 1  IDiag  1:
 E= -205.678824016775     Delta-E=       -0.024275817126 Rises=F Damp=F
 DIIS: error= 1.98D-02 at cycle   2 NSaved=   2.
 NSaved= 2 IEnMin= 2 EnMin= -205.678824016775     IErMin= 2 ErrMin= 1.98D-02
 ErrMax= 1.98D-02 EMaxC= 1.00D+00 BMatC= 3.51D-02 BMatP= 2.56D-01
 IDIUse=1 WtCom= 1.00D+00 WtEn= 0.00D+00
 Coeff-Com:  0.143D+00 0.857D+00
 Coeff:      0.143D+00 0.857D+00
 Gap=     0.102 Goal=     0.100 Shift=    0.000
 T= 1515. Gap= 0.100 NK=3 IS=    7 IE=   15
          NO(<0.9)=   0  NV(>0.1)=   0  12.00e < EF 0.00e >EF  Err=0.0D+00
 Gap=     0.186 Goal=     0.100 Shift=    0.000
 T= 1515. Gap= 0.188 NK=4 IS=    7 IE=   17
          NO(<0.9)=   0  NV(>0.1)=   0  12.00e < EF 0.00e >EF  Err=1.8D-15
 GapD=    0.102 DampG=1.000 DampE=0.500 DampFc=0.5000 IDamp=-1.
 Damping current iteration by 5.00D-01
 RMSDP=1.97D-03 MaxDP=3.20D-02 DE=-2.43D-02 OVMax= 7.66D-02

 Cycle   3  Pass 1  IDiag  1:
 E= -205.680771501920     Delta-E=       -0.001947485145 Rises=F Damp=T
 DIIS: error= 1.04D-02 at cycle   3 NSaved=   3.
 NSaved= 3 IEnMin= 3 EnMin= -205.680771501920     IErMin= 3 ErrMin= 1.04D-02
 ErrMax= 1.04D-02 EMaxC= 1.00D+00 BMatC= 6.71D-03 BMatP= 3.51D-02
 IDIUse=1 WtCom= 1.00D+00 WtEn= 0.00D+00
 Coeff-Com:  0.223D-01 0.260D+00 0.718D+00
 Coeff:      0.223D-01 0.260D+00 0.718D+00
 Gap=     0.086 Goal=     0.100 Shift=    0.014
 T= 1317. Gap= 0.100 NK=3 IS=    7 IE=   15
          NO(<0.9)=   0  NV(>0.1)=   0  12.00e < EF 0.00e >EF  Err=1.8D-15
 Gap=     0.205 Goal=     0.100 Shift=    0.000
 T= 1317. Gap= 0.206 NK=4 IS=    7 IE=   17
          NO(<0.9)=   0  NV(>0.1)=   0  12.00e < EF 0.00e >EF  Err=0.0D+00
 GapD=    0.086 DampG=0.500 DampE=0.500 DampFc=0.2500 IDamp=-1.
 Damping current iteration by 2.50D-01
 RMSDP=6.56D-04 MaxDP=9.17D-03 DE=-1.95D-03 OVMax= 7.43D-02

 Cycle   4  Pass 1  IDiag  1:
 E= -205.682235706908     Delta-E=       -0.001464204988 Rises=F Damp=T
 DIIS: error= 6.80D-03 at cycle   4 NSaved=   4.
 NSaved= 4 IEnMin= 4 EnMin= -205.682235706908     IErMin= 4 ErrMin= 6.80D-03
 ErrMax= 6.80D-03 EMaxC= 1.00D+00 BMatC= 2.80D-03 BMatP= 6.71D-03
 IDIUse=1 WtCom= 1.00D+00 WtEn= 0.00D+00
 Coeff-Com: -0.719D-02 0.583D-01-0.126D+01 0.221D+01
 Coeff:     -0.719D-02 0.583D-01-0.126D+01 0.221D+01
 Gap=     0.084 Goal=     0.100 Shift=    0.016
 T=  963. Gap= 0.100 NK=3 IS=    7 IE=   15
          NO(<0.9)=   0  NV(>0.1)=   0  12.00e < EF 0.00e >EF  Err=0.0D+00
 Gap=     0.205 Goal=     0.100 Shift=    0.000
 T=  963. Gap= 0.205 NK=4 IS=    7 IE=   17
          NO(<0.9)=   0  NV(>0.1)=   0  12.00e < EF 0.00e >EF  Err=0.0D+00
 GapD=    0.084 DampG=0.500 DampE=1.000 DampFc=0.5000 IDamp=-1.
 Damping current iteration by 5.00D-01
 RMSDP=7.22D-04 MaxDP=7.92D-03 DE=-1.46D-03 OVMax= 2.98D-02

 Cycle   5  Pass 1  IDiag  1:
 E= -205.684129123175     Delta-E=       -0.001893416267 Rises=F Damp=T
 DIIS: error= 4.30D-03 at cycle   5 NSaved=   5.
 NSaved= 5 IEnMin= 5 EnMin= -205.684129123175     IErMin= 5 ErrMin= 4.30D-03
 ErrMax= 4.30D-03 EMaxC= 1.00D+00 BMatC= 9.51D-04 BMatP= 2.80D-03
 IDIUse=1 WtCom= 1.00D+00 WtEn= 0.00D+00
 Coeff-Com: -0.102D-01-0.323D-01-0.105D+01 0.111D+01 0.975D+00
 Coeff:     -0.102D-01-0.323D-01-0.105D+01 0.111D+01 0.975D+00
 Gap=     0.089 Goal=     0.100 Shift=    0.011
 T=  638. Gap= 0.100 NK=3 IS=    7 IE=   15
          NO(<0.9)=   0  NV(>0.1)=   0  12.00e < EF 0.00e >EF  Err=1.6D-13
 Gap=     0.193 Goal=     0.100 Shift=    0.000
 T=  638. Gap= 0.193 NK=4 IS=    7 IE=   17
          NO(<0.9)=   0  NV(>0.1)=   0  12.00e < EF 0.00e >EF  Err=0.0D+00
 GapD=    0.089 DampG=0.500 DampE=1.000 DampFc=0.5000 IDamp=-1.
 Damping current iteration by 5.00D-01
 RMSDP=3.56D-04 MaxDP=5.80D-03 DE=-1.89D-03 OVMax= 9.65D-03

 Cycle   6  Pass 1  IDiag  1:
 E= -205.685094518826     Delta-E=       -0.000965395651 Rises=F Damp=T
 DIIS: error= 2.16D-03 at cycle   6 NSaved=   6.
 NSaved= 6 IEnMin= 6 EnMin= -205.685094518826     IErMin= 6 ErrMin= 2.16D-03
 ErrMax= 2.16D-03 EMaxC= 1.00D+00 BMatC= 2.34D-04 BMatP= 9.51D-04
 IDIUse=1 WtCom= 1.00D+00 WtEn= 0.00D+00
 Coeff-Com: -0.537D-03-0.526D-01-0.576D-01-0.139D+00-0.622D+00 0.187D+01
 Coeff:     -0.537D-03-0.526D-01-0.576D-01-0.139D+00-0.622D+00 0.187D+01
 Gap=     0.088 Goal=     0.100 Shift=    0.012
 T=  348. Gap= 0.100 NK=3 IS=    7 IE=   15
          NO(<0.9)=   0  NV(>0.1)=   0  12.00e < EF 0.00e >EF  Err=0.0D+00
 Gap=     0.190 Goal=     0.100 Shift=    0.000
 T=  348. Gap= 0.190 NK=4 IS=    7 IE=   17
          NO(<0.9)=   0  NV(>0.1)=   0  12.00e < EF 0.00e >EF  Err=0.0D+00
 GapD=    0.088 DampG=0.500 DampE=1.000 DampFc=0.5000 IDamp=-1.
 Damping current iteration by 5.00D-01
 RMSDP=2.77D-04 MaxDP=3.18D-03 DE=-9.65D-04 OVMax= 8.00D-03

 Cycle   7  Pass 1  IDiag  1:
 E= -205.685580883615     Delta-E=       -0.000486364789 Rises=F Damp=T
 DIIS: error= 1.19D-03 at cycle   7 NSaved=   7.
 NSaved= 7 IEnMin= 7 EnMin= -205.685580883615     IErMin= 7 ErrMin= 1.19D-03
 ErrMax= 1.19D-03 EMaxC= 1.00D+00 BMatC= 6.35D-05 BMatP= 2.34D-04
 IDIUse=1 WtCom= 1.00D+00 WtEn= 0.00D+00
 Coeff-Com:  0.673D-03-0.590D-02 0.153D+00-0.184D+00-0.212D+00-0.758D+00
 Coeff-Com:  0.201D+01
 Coeff:      0.673D-03-0.590D-02 0.153D+00-0.184D+00-0.212D+00-0.758D+00
 Coeff:      0.201D+01
 Gap=     0.089 Goal=     0.100 Shift=    0.011
 T=   18. Gap= 0.100 NK=3 IS=    7 IE=   15
          NO(<0.9)=   0  NV(>0.1)=   0  12.00e < EF 0.00e >EF  Err=0.0D+00
 Gap=     0.189 Goal=     0.100 Shift=    0.000
 T=   18. Gap= 0.189 NK=4 IS=    7 IE=   17
          NO(<0.9)=   0  NV(>0.1)=   0  12.00e < EF 0.00e >EF  Err=0.0D+00
 GapD=    0.089 DampG=0.500 DampE=1.000 DampFc=0.5000 IDamp=-1.
 Damping current iteration by 5.00D-01
 RMSDP=1.64D-04 MaxDP=2.21D-03 DE=-4.86D-04 OVMax= 2.67D-03

 Cycle   8  Pass 1  IDiag  1:
 E= -205.685833681719     Delta-E=       -0.000252798104 Rises=F Damp=T
 DIIS: error= 6.86D-04 at cycle   8 NSaved=   8.
 NSaved= 8 IEnMin= 8 EnMin= -205.685833681719     IErMin= 8 ErrMin= 6.86D-04
 ErrMax= 6.86D-04 EMaxC= 1.00D+00 BMatC= 1.67D-05 BMatP= 6.35D-05
 IDIUse=1 WtCom= 1.00D+00 WtEn= 0.00D+00
 Coeff-Com: -0.131D-03 0.153D-01-0.330D-01 0.425D-01 0.333D+00-0.374D+00
 Coeff-Com: -0.192D+01 0.293D+01
 Coeff:     -0.131D-03 0.153D-01-0.330D-01 0.425D-01 0.333D+00-0.374D+00
 Coeff:     -0.192D+01 0.293D+01
 Gap=     0.088 Goal=     0.100 Shift=    0.012
 Gap=     0.189 Goal=     0.100 Shift=    0.000
 RMSDP=9.76D-05 MaxDP=1.49D-03 DE=-2.53D-04 OVMax= 1.90D-03

 Cycle   9  Pass 1  IDiag  1:
 E= -205.686106651794     Delta-E=       -0.000272970075 Rises=F Damp=F
 DIIS: error= 4.91D-05 at cycle   9 NSaved=   9.
 NSaved= 9 IEnMin= 9 EnMin= -205.686106651794     IErMin= 9 ErrMin= 4.91D-05
 ErrMax= 4.91D-05 EMaxC= 1.00D+00 BMatC= 1.38D-07 BMatP= 1.67D-05
 IDIUse=1 WtCom= 1.00D+00 WtEn= 0.00D+00
 Coeff-Com: -0.597D-04 0.570D-03-0.191D-01 0.182D-01 0.427D-01 0.161D-01
 Coeff-Com: -0.393D-01-0.192D+00 0.117D+01
 Coeff:     -0.597D-04 0.570D-03-0.191D-01 0.182D-01 0.427D-01 0.161D-01
 Coeff:     -0.393D-01-0.192D+00 0.117D+01
 Gap=     0.088 Goal=     0.100 Shift=    0.012
 Gap=     0.189 Goal=     0.100 Shift=    0.000
 RMSDP=6.80D-06 MaxDP=1.38D-04 DE=-2.73D-04 OVMax= 4.95D-04

 Cycle  10  Pass 1  IDiag  1:
 E= -205.686106791754     Delta-E=       -0.000000139960 Rises=F Damp=F
 DIIS: error= 1.18D-05 at cycle  10 NSaved=  10.
 NSaved=10 IEnMin=10 EnMin= -205.686106791754     IErMin=10 ErrMin= 1.18D-05
 ErrMax= 1.18D-05 EMaxC= 1.00D+00 BMatC= 4.80D-09 BMatP= 1.38D-07
 IDIUse=1 WtCom= 1.00D+00 WtEn= 0.00D+00
 Coeff-Com:  0.863D-05-0.739D-03 0.175D-02-0.212D-02-0.145D-01 0.203D-01
 Coeff-Com:  0.840D-01-0.142D+00 0.812D-02 0.105D+01
 Coeff:      0.863D-05-0.739D-03 0.175D-02-0.212D-02-0.145D-01 0.203D-01
 Coeff:      0.840D-01-0.142D+00 0.812D-02 0.105D+01
 Gap=     0.088 Goal=     0.100 Shift=    0.012
 Gap=     0.189 Goal=     0.100 Shift=    0.000
 RMSDP=1.08D-06 MaxDP=2.10D-05 DE=-1.40D-07 OVMax= 7.49D-05

 Cycle  11  Pass 1  IDiag  1:
 E= -205.686106795774     Delta-E=       -0.000000004019 Rises=F Damp=F
 DIIS: error= 1.85D-06 at cycle  11 NSaved=  11.
 NSaved=11 IEnMin=11 EnMin= -205.686106795774     IErMin=11 ErrMin= 1.85D-06
 ErrMax= 1.85D-06 EMaxC= 1.00D+00 BMatC= 4.50D-10 BMatP= 4.80D-09
 IDIUse=1 WtCom= 1.00D+00 WtEn= 0.00D+00
 Coeff-Com:  0.410D-05-0.400D-04 0.187D-02-0.169D-02-0.481D-02 0.109D-02
 Coeff-Com: -0.202D-02 0.229D-01-0.111D+00-0.298D-01 0.112D+01
 Coeff:      0.410D-05-0.400D-04 0.187D-02-0.169D-02-0.481D-02 0.109D-02
 Coeff:     -0.202D-02 0.229D-01-0.111D+00-0.298D-01 0.112D+01
 Gap=     0.088 Goal=     0.100 Shift=    0.012
 Gap=     0.189 Goal=     0.100 Shift=    0.000
 RMSDP=3.36D-07 MaxDP=5.92D-06 DE=-4.02D-09 OVMax= 1.53D-05

 Cycle  12  Pass 1  IDiag  1:
 E= -205.686106796093     Delta-E=       -0.000000000319 Rises=F Damp=F
 DIIS: error= 5.18D-07 at cycle  12 NSaved=  12.
 NSaved=12 IEnMin=12 EnMin= -205.686106796093     IErMin=12 ErrMin= 5.18D-07
 ErrMax= 5.18D-07 EMaxC= 1.00D+00 BMatC= 3.05D-11 BMatP= 4.50D-10
 IDIUse=1 WtCom= 1.00D+00 WtEn= 0.00D+00
 Coeff-Com: -0.844D-06 0.550D-04-0.305D-03 0.339D-03 0.112D-02-0.132D-02
 Coeff-Com: -0.555D-02 0.871D-02 0.105D-02-0.745D-01 0.280D-01 0.104D+01
 Coeff:     -0.844D-06 0.550D-04-0.305D-03 0.339D-03 0.112D-02-0.132D-02
 Coeff:     -0.555D-02 0.871D-02 0.105D-02-0.745D-01 0.280D-01 0.104D+01
 Gap=     0.088 Goal=     0.100 Shift=    0.012
 Gap=     0.189 Goal=     0.100 Shift=    0.000
 RMSDP=7.10D-08 MaxDP=1.41D-06 DE=-3.19D-10 OVMax= 3.32D-06

 Cycle  13  Pass 1  IDiag  1:
 E= -205.686106796107     Delta-E=       -0.000000000014 Rises=F Damp=F
 DIIS: error= 1.35D-07 at cycle  13 NSaved=  13.
 NSaved=13 IEnMin=13 EnMin= -205.686106796107     IErMin=13 ErrMin= 1.35D-07
 ErrMax= 1.35D-07 EMaxC= 1.00D+00 BMatC= 2.33D-12 BMatP= 3.05D-11
 IDIUse=1 WtCom= 1.00D+00 WtEn= 0.00D+00
 Coeff-Com: -0.187D-06 0.297D-05-0.986D-04 0.117D-03 0.231D-03-0.143D-03
 Coeff-Com: -0.236D-03-0.401D-03 0.525D-02-0.180D-02-0.635D-01 0.797D-01
 Coeff-Com:  0.981D+00
 Coeff:     -0.187D-06 0.297D-05-0.986D-04 0.117D-03 0.231D-03-0.143D-03
 Coeff:     -0.236D-03-0.401D-03 0.525D-02-0.180D-02-0.635D-01 0.797D-01
 Coeff:      0.981D+00
 Gap=     0.088 Goal=     0.100 Shift=    0.012
 Gap=     0.189 Goal=     0.100 Shift=    0.000
 RMSDP=1.46D-08 MaxDP=2.17D-07 DE=-1.45D-11 OVMax= 9.51D-07

 Cycle  14  Pass 1  IDiag  1:
 E= -205.686106796108     Delta-E=       -0.000000000001 Rises=F Damp=F
 DIIS: error= 2.26D-08 at cycle  14 NSaved=  14.
 NSaved=14 IEnMin=14 EnMin= -205.686106796108     IErMin=14 ErrMin= 2.26D-08
 ErrMax= 2.26D-08 EMaxC= 1.00D+00 BMatC= 9.83D-14 BMatP= 2.33D-12
 IDIUse=1 WtCom= 1.00D+00 WtEn= 0.00D+00
 Coeff-Com:  0.562D-07-0.301D-05 0.272D-04-0.291D-04-0.663D-04 0.498D-04
 Coeff-Com:  0.289D-03-0.365D-03-0.276D-03 0.439D-02-0.475D-02-0.465D-01
 Coeff-Com: -0.961D-02 0.106D+01
 Coeff:      0.562D-07-0.301D-05 0.272D-04-0.291D-04-0.663D-04 0.498D-04
 Coeff:      0.289D-03-0.365D-03-0.276D-03 0.439D-02-0.475D-02-0.465D-01
 Coeff:     -0.961D-02 0.106D+01
 Gap=     0.088 Goal=     0.100 Shift=    0.012
 Gap=     0.189 Goal=     0.100 Shift=    0.000
 RMSDP=4.74D-09 MaxDP=6.92D-08 DE=-8.53D-13 OVMax= 3.56D-07

 SCF Done:  E(UB3LYP) =  -205.686106796     A.U. after   14 cycles
             Convg  =    0.4745D-08             -V/T =  2.0020
 <Sx>= 0.0000 <Sy>= 0.0000 <Sz>= 0.0000 <S**2>= 0.7895 S= 0.5196
 <L.S>= 0.000000000000E+00
 KE= 2.052838405706D+02 PE=-6.027734778478D+02 EE= 1.333793440877D+02
 Annihilation of the first spin contaminant:
 S**2 before annihilation     0.7895,   after     0.0158
 Leave Link  502 at Mon Jan 14 18:27:23 2013, MaxMem=  268435456 cpu:       6.5
 (Enter /Users/talipovmr/usr/local/g09/l508.exe)
 QCSCF skips out because SCF is already converged.
 Leave Link  508 at Mon Jan 14 18:27:23 2013, MaxMem=  268435456 cpu:       0.0
 (Enter /Users/talipovmr/usr/local/g09/l801.exe)
 Range of M.O.s used for correlation:     1    60
 NBasis=    60 NAE=    12 NBE=    12 NFC=     0 NFV=     0
 NROrb=     60 NOA=    12 NOB=    12 NVA=    48 NVB=    48

 **** Warning!!: The smallest alpha delta epsilon is  0.88483605D-01

 Leave Link  801 at Mon Jan 14 18:27:23 2013, MaxMem=  268435456 cpu:       0.1
 (Enter /Users/talipovmr/usr/local/g09/l1101.exe)
 Using compressed storage, NAtomX=     4.
 Will process   5 centers per pass.
 Leave Link 1101 at Mon Jan 14 18:27:23 2013, MaxMem=  268435456 cpu:       0.3
 (Enter /Users/talipovmr/usr/local/g09/l1102.exe)
 Symmetrizing basis deriv contribution to polar:
 IMax=3 JMax=2 DiffMx= 0.00D+00
 Leave Link 1102 at Mon Jan 14 18:27:23 2013, MaxMem=  268435456 cpu:       0.1
 (Enter /Users/talipovmr/usr/local/g09/l1110.exe)
 Forming Gx(P) for the SCF density, NAtomX=     4.
 Integral derivatives from FoFDir/FoFCou, PRISM(SPDF).
 Do as many integral derivatives as possible in FoFDir.
 G2DrvN: MDV=     268435320.
 G2DrvN: will do     5 centers at a time, making    1 passes doing MaxLOS=2.
 Calling FoFCou, ICntrl=  3107 FMM=F I1Cent=   0 AccDes= 0.00D+00.
 FoFCou: FMM=F IPFlag=           0 FMFlag=      100000 FMFlg1=           0
         NFxFlg=           0 DoJE=F BraDBF=F KetDBF=F FulRan=T
         Omega=  0.000000  0.000000  1.000000  0.000000  0.000000 ICntrl=    3107 IOpCl=  1
         NMat0=    1 NMatS0=    1 NMatT0=    0 NMatD0=    1 NMtDS0=    0 NMtDT0=    0
         I1Cent=           0 NGrid=           0.
 Symmetry not used in FoFCou.
 FoFDir/FoFCou used for L=0 through L=2.
 End of G2Drv Frequency-dependent properties file   721 does not exist.
 End of G2Drv Frequency-dependent properties file   722 does not exist.
 Leave Link 1110 at Mon Jan 14 18:27:27 2013, MaxMem=  268435456 cpu:       6.7
 (Enter /Users/talipovmr/usr/local/g09/l1002.exe)
 Minotr:  UHF open shell wavefunction.
          IDoAtm=1111
          Direct CPHF calculation.
          Differentiating once with respect to nuclear coordinates.
          Requested convergence is 1.0D-06 RMS, and 1.0D-05 maximum.
          Secondary convergence is 1.0D-12 RMS, and 1.0D-12 maximum.
          NewPWx=T KeepS1=F KeepF1=F KeepIn=T MapXYZ=F SortEE=F KeepMc=T.
          MDV=     268435412 using IRadAn=       2.
 Generate precomputed XC quadrature information.
          Keep R1 and R2 ints in memory in canonical form, NReq=4887827.
 Symmetry not used in FoFDir.
 MinBra= 0 MaxBra= 2 Meth= 1.
 IRaf=       0 NMat=   1 IRICut=       1 DoRegI=T DoRafI=F ISym2E= 0 JSym2E=0.
          Solving linear equations simultaneously, MaxMat=       0.
          There are    15 degrees of freedom in the 1st order CPHF.  IDoFFX=5.
      9 vectors produced by pass  0 Test12= 7.68D-11 6.67D-07 XBig12= 4.63D-01 5.19D-01.
 AX will form     9 AO Fock derivatives at one time.
      9 vectors produced by pass  1 Test12= 7.68D-11 6.67D-07 XBig12= 3.30D-02 6.77D-02.
      9 vectors produced by pass  2 Test12= 7.68D-11 6.67D-07 XBig12= 2.22D-03 1.87D-02.
      9 vectors produced by pass  3 Test12= 7.68D-11 6.67D-07 XBig12= 6.94D-05 2.89D-03.
      9 vectors produced by pass  4 Test12= 7.68D-11 6.67D-07 XBig12= 2.21D-06 5.97D-04.
      9 vectors produced by pass  5 Test12= 7.68D-11 6.67D-07 XBig12= 3.61D-08 5.41D-05.
      4 vectors produced by pass  6 Test12= 7.68D-11 6.67D-07 XBig12= 2.47D-10 5.21D-06.
 Inverted reduced A of dimension    58 with in-core refinement.
 End of Minotr Frequency-dependent properties file   721 does not exist.
 End of Minotr Frequency-dependent properties file   722 does not exist.
 Leave Link 1002 at Mon Jan 14 18:27:30 2013, MaxMem=  268435456 cpu:       5.7
 (Enter /Users/talipovmr/usr/local/g09/l601.exe)
 Copying SCF densities to generalized density rwf, IOpCl= 1 IROHF=0.

 **********************************************************************

            Population analysis using the SCF density.

 **********************************************************************

 Alpha  occ. eigenvalues --  -19.28829 -19.10130 -14.47443  -1.28814  -0.90389
 Alpha  occ. eigenvalues --   -0.70134  -0.56267  -0.53858  -0.50721  -0.40090
 Alpha  occ. eigenvalues --   -0.26955  -0.22116
 Alpha virt. eigenvalues --   -0.13268  -0.11582   0.06526   0.31323   0.40475
 Alpha virt. eigenvalues --    0.52625   0.54273   0.57830   0.60862   0.70559
 Alpha virt. eigenvalues --    0.74597   0.74817   0.81763   0.88899   1.03366
 Alpha virt. eigenvalues --    1.14526   1.26361   1.36507   1.43443   1.80488
 Alpha virt. eigenvalues --    1.80748   1.80941   1.85509   1.95927   2.39017
 Alpha virt. eigenvalues --    2.52749   2.73358   2.75160   2.87397   2.88178
 Alpha virt. eigenvalues --    3.14639   3.14945   3.19953   3.21432   3.52740
 Alpha virt. eigenvalues --    3.67807   3.72305   3.80868   4.14925   4.72617
 Alpha virt. eigenvalues --    4.77341   4.78824   4.83030   5.40396   5.51166
 Alpha virt. eigenvalues --   35.32962  49.75552  49.79089
  Beta  occ. eigenvalues --  -19.28052 -19.12274 -14.46086  -1.27142  -0.96156
  Beta  occ. eigenvalues --   -0.67205  -0.53058  -0.50948  -0.48621  -0.41545
  Beta  occ. eigenvalues --   -0.35145  -0.29163
  Beta virt. eigenvalues --   -0.10235  -0.06434   0.05943   0.32363   0.39922
  Beta virt. eigenvalues --    0.53249   0.57571   0.59055   0.61528   0.68680
  Beta virt. eigenvalues --    0.74728   0.75232   0.81050   0.86089   1.01589
  Beta virt. eigenvalues --    1.13861   1.26495   1.36655   1.42692   1.80965
  Beta virt. eigenvalues --    1.84323   1.85321   1.89317   1.95287   2.38870
  Beta virt. eigenvalues --    2.54371   2.75904   2.77433   2.80418   2.80635
  Beta virt. eigenvalues --    3.08774   3.13522   3.20569   3.25041   3.53806
  Beta virt. eigenvalues --    3.68782   3.77444   3.78645   4.15978   4.72198
  Beta virt. eigenvalues --    4.72680   4.77370   4.81948   5.38434   5.52187
  Beta virt. eigenvalues --   35.34335  49.74550  49.78667
          Condensed to atoms (all electrons):
              1          2          3          4
     1  O    7.737258   0.242370  -0.002543   0.001750
     2  N    0.242370   6.621660   0.001549   0.000142
     3  O   -0.002543   0.001549   8.124404   0.257210
     4  H    0.001750   0.000142   0.257210   0.515721
 Mulliken atomic charges:
              1
     1  O    0.021165
     2  N    0.134280
     3  O   -0.380620
     4  H    0.225175
 Sum of Mulliken atomic charges =   0.00000
 Mulliken charges with hydrogens summed into heavy atoms:
              1
     1  O    0.021165
     2  N    0.134280
     3  O   -0.155445
 Sum of Mulliken charges with hydrogens summed into heavy atoms =   0.00000
          Atomic-Atomic Spin Densities.
              1          2          3          4
     1  O    0.429179  -0.216711   0.017783  -0.000045
     2  N   -0.216711   0.814322   0.001318  -0.000208
     3  O    0.017783   0.001318  -0.868088  -0.002214
     4  H   -0.000045  -0.000208  -0.002214   0.024741
 Mulliken atomic spin densities:
              1
     1  O    0.230206
     2  N    0.598720
     3  O   -0.851201
     4  H    0.022275
 Sum of Mulliken atomic spin densities =   0.00000
 APT atomic charges:
              1
     1  O    0.057636
     2  N    0.089610
     3  O   -0.750894
     4  H    0.603648
 Sum of APT charges=   0.00000
 APT Atomic charges with hydrogens summed into heavy atoms:
              1
     1  O    0.057636
     2  N    0.089610
     3  O   -0.147245
     4  H    0.000000
 Sum of APT charges=   0.00000
 Electronic spatial extent (au):  <R**2>=            181.6179
 Charge=              0.0000 electrons
 Dipole moment (field-independent basis, Debye):
    X=             -0.3657    Y=              0.3336    Z=              0.0000  Tot=              0.4950
 Quadrupole moment (field-independent basis, Debye-Ang):
   XX=            -13.9732   YY=            -13.5454   ZZ=            -15.9051
   XY=              2.8032   XZ=              0.0000   YZ=              0.0000
 Traceless Quadrupole moment (field-independent basis, Debye-Ang):
   XX=              0.5014   YY=              0.9291   ZZ=             -1.4305
   XY=              2.8032   XZ=              0.0000   YZ=              0.0000
 Octapole moment (field-independent basis, Debye-Ang**2):
  XXX=            -10.4179  YYY=             -8.1827  ZZZ=              0.0000  XYY=             -6.6996
  XXY=             -6.0260  XXZ=              0.0000  XZZ=              0.0252  YZZ=              1.0107
  YYZ=              0.0000  XYZ=              0.0000
 Hexadecapole moment (field-independent basis, Debye-Ang**3):
 XXXX=            -73.9878 YYYY=            -94.2058 ZZZZ=            -11.5266 XXXY=            -22.0861
 XXXZ=              0.0000 YYYX=            -18.2476 YYYZ=              0.0000 ZZZX=              0.0000
 ZZZY=              0.0000 XXYY=            -20.7710 XXZZ=            -15.1041 YYZZ=            -20.6945
 XXYZ=              0.0000 YYXZ=              0.0000 ZZXY=            -10.6776
 N-N= 5.842418639339D+01 E-N=-9.041247317386D+02  KE= 3.079713307927D+02
  Exact polarizability:   0.000   0.000   0.000   0.000   0.000   0.000
 Approx polarizability:  52.834  30.401  57.571   0.000   0.000   9.948
                          Isotropic Fermi Contact Couplings
        Atom                 a.u.       MegaHertz       Gauss      10(-4) cm-1
     1  O(17)              0.00428      -1.29843      -0.46331      -0.43311
     2  N(14)              0.02667       4.30823       1.53729       1.43707
     3  O(17)             -0.05127      15.53860       5.54456       5.18312
     4  H(1)               0.01209      27.01850       9.64087       9.01240
 --------------------------------------------------------
       Center         ----  Spin Dipole Couplings  ----
                      3XX-RR        3YY-RR        3ZZ-RR
 --------------------------------------------------------
     1   Atom       -0.315760      1.085442     -0.769682
     2   Atom       -0.434571      1.234073     -0.799502
     3   Atom       -0.364842     -1.289176      1.654019
     4   Atom       -0.069893     -0.037481      0.107374
 --------------------------------------------------------
                        XY            XZ            YZ
 --------------------------------------------------------
     1   Atom        0.744946      0.000000      0.000000
     2   Atom        0.923554      0.000000      0.000000
     3   Atom        2.420802      0.000000      0.000000
     4   Atom       -0.082391      0.000000      0.000000
 --------------------------------------------------------


 ---------------------------------------------------------------------------------
              Anisotropic Spin Dipole Couplings in Principal Axis System
 ---------------------------------------------------------------------------------

       Atom             a.u.   MegaHertz   Gauss  10(-4) cm-1        Axes

              Baa    -0.7697    55.694    19.873    18.577  0.0000  0.0000  1.0000
     1 O(17)  Bbb    -0.6378    46.150    16.468    15.394  0.9179 -0.3968  0.0000
              Bcc     1.4075  -101.844   -36.341   -33.972  0.3968  0.9179  0.0000
 
              Baa    -0.8449   -32.584   -11.627   -10.869  0.9139 -0.4060  0.0000
     2 N(14)  Bbb    -0.7995   -30.835   -11.003   -10.285  0.0000  0.0000  1.0000
              Bcc     1.6444    63.419    22.630    21.154  0.4060  0.9139  0.0000
 
              Baa    -3.2915   238.173    84.986    79.446 -0.6374  0.7706  0.0000
     3 O(17)  Bbb     1.6375  -118.489   -42.280   -39.524  0.7706  0.6374  0.0000
              Bcc     1.6540  -119.684   -42.706   -39.922  0.0000  0.0000  1.0000
 
              Baa    -0.1377   -73.447   -26.208   -24.499  0.7723  0.6352  0.0000
     4 H(1)   Bbb     0.0303    16.157     5.765     5.389 -0.6352  0.7723  0.0000
              Bcc     0.1074    57.290    20.442    19.110  0.0000  0.0000  1.0000
 

 ---------------------------------------------------------------------------------

 No NMR shielding tensors so no spin-rotation constants.
 Leave Link  601 at Mon Jan 14 18:27:30 2013, MaxMem=  268435456 cpu:       0.5
 (Enter /Users/talipovmr/usr/local/g09/l701.exe)
 Compute integral second derivatives.
 ... and contract with generalized density number  0.
 Leave Link  701 at Mon Jan 14 18:27:30 2013, MaxMem=  268435456 cpu:       0.4
 (Enter /Users/talipovmr/usr/local/g09/l702.exe)
 L702 exits ... SP integral derivatives will be done elsewhere.
 Leave Link  702 at Mon Jan 14 18:27:31 2013, MaxMem=  268435456 cpu:       0.1
 (Enter /Users/talipovmr/usr/local/g09/l703.exe)
 Compute integral second derivatives, UseDBF=F ICtDFT=           0.
 Integral derivatives from FoFDir, PRISM(SPDF).
 Calling FoFJK, ICntrl=    100147 FMM=F ISym2X=0 I1Cent= 0 IOpClX= 1 NMat=1 NMatS=1 NMatT=0.
 FoFCou: FMM=F IPFlag=           0 FMFlag=      100000 FMFlg1=         800
         NFxFlg=           0 DoJE=F BraDBF=F KetDBF=F FulRan=T
         Omega=  0.000000  0.000000  1.000000  0.000000  0.000000 ICntrl=  100147 IOpCl=  1
         NMat0=    1 NMatS0=    1 NMatT0=    0 NMatD0=    1 NMtDS0=    0 NMtDT0=    0
         I1Cent=           0 NGrid=           0.
 Symmetry not used in FoFCou.
 Leave Link  703 at Mon Jan 14 18:27:35 2013, MaxMem=  268435456 cpu:       8.0
 (Enter /Users/talipovmr/usr/local/g09/l716.exe)
 Dipole        =-1.43893148D-01 1.31233940D-01 8.06334974D-15
 Polarizability= 0.00000000D+00 0.00000000D+00 0.00000000D+00
                 0.00000000D+00 0.00000000D+00 0.00000000D+00
 -------------------------------------------------------------------
 Center     Atomic                   Forces (Hartrees/Bohr)
 Number     Number              X              Y              Z
 -------------------------------------------------------------------
      1        8           0.000009596   -0.000037146    0.000000000
      2        7           0.000008979    0.000022152    0.000000000
      3        8          -0.000030161    0.000035223    0.000000000
      4        1           0.000011586   -0.000020228    0.000000000
 -------------------------------------------------------------------
 Cartesian Forces:  Max     0.000037146 RMS     0.000019868
 Force constants in Cartesian coordinates: 
                1             2             3             4             5 
      1  0.931080D+00
      2 -0.399709D+00  0.197050D+00
      3  0.000000D+00  0.000000D+00 -0.325108D-03
      4 -0.916132D+00  0.388172D+00  0.000000D+00  0.910197D+00
      5  0.431676D+00 -0.194792D+00  0.000000D+00 -0.417172D+00  0.206265D+00
      6  0.000000D+00  0.000000D+00  0.167666D-03  0.000000D+00  0.000000D+00
      7 -0.156144D-02  0.145135D-01  0.000000D+00 -0.111759D-01 -0.149932D-01
      8 -0.297028D-01 -0.139852D-01  0.000000D+00  0.307406D-01 -0.293887D-02
      9  0.000000D+00  0.000000D+00  0.246585D-03  0.000000D+00  0.000000D+00
     10 -0.133872D-01 -0.297678D-02  0.000000D+00  0.171099D-01  0.489423D-03
     11 -0.226417D-02  0.117275D-01  0.000000D+00 -0.174071D-02 -0.853380D-02
     12  0.000000D+00  0.000000D+00 -0.891432D-04  0.000000D+00  0.000000D+00
                6             7             8             9            10 
      6  0.937538D-04
      7  0.000000D+00  0.309463D+00
      8  0.000000D+00  0.239981D+00  0.227653D+00
      9 -0.853478D-03  0.000000D+00  0.000000D+00  0.250283D-02
     10  0.000000D+00 -0.296726D+00 -0.241019D+00  0.000000D+00  0.293003D+00
     11  0.000000D+00 -0.239501D+00 -0.210729D+00  0.000000D+00  0.243506D+00
     12  0.592059D-03  0.000000D+00  0.000000D+00 -0.189594D-02  0.000000D+00
               11            12 
     11  0.207536D+00
     12  0.000000D+00  0.139302D-02
 Force constants in internal coordinates: 
                1             2             3             4             5 
      1  0.105700D+01
      2 -0.197319D-01  0.219649D-01
      3 -0.306114D-02 -0.116370D-01  0.164135D-01
      4 -0.125547D-01  0.933914D-04 -0.517454D-03  0.497503D+00
      5 -0.114201D+00 -0.999611D-02  0.125697D-01  0.137274D-02  0.157796D-01
      6  0.119653D+00 -0.135874D-01  0.106074D-01 -0.135578D-02 -0.104090D-01
      7  0.000000D+00  0.000000D+00  0.000000D+00  0.000000D+00  0.000000D+00
      8  0.000000D+00  0.000000D+00  0.000000D+00  0.000000D+00  0.000000D+00
                6             7             8 
      6  0.152433D-01
      7  0.000000D+00  0.254791D-03
      8  0.000000D+00 -0.254791D-03  0.254791D-03
 Leave Link  716 at Mon Jan 14 18:27:35 2013, MaxMem=  268435456 cpu:       0.1
 (Enter /Users/talipovmr/usr/local/g09/l123.exe)
 IRC-IRC-IRC-IRC-IRC-IRC-IRC-IRC-IRC-IRC-IRC-IRC-IRC-IRC-IRC-IRC-IRC-IRC
          ******** Start new reaction path calculation ********
 Current Structure is TS -> diagonalize the Hessian.
 Supplied step size of   0.1000 bohr.
    Integration on MW PES will use step size of   0.1455 sqrt(amu)*bohr.
 Point Number:   0          Path Number:   1
 Calculating another point on the path.
 Point Number  1 in FORWARD path direction.
 Using LQA Reaction Path Following.
 IRC-IRC-IRC-IRC-IRC-IRC-IRC-IRC-IRC-IRC-IRC-IRC-IRC-IRC-IRC-IRC-IRC-IRC
 Leave Link  123 at Mon Jan 14 18:27:35 2013, MaxMem=  268435456 cpu:       0.0
 (Enter /Users/talipovmr/usr/local/g09/l202.exe)
                          Input orientation:                          
 ---------------------------------------------------------------------
 Center     Atomic      Atomic             Coordinates (Angstroms)
 Number     Number       Type             X           Y           Z
 ---------------------------------------------------------------------
      1          8           0        0.036234    0.968749    0.000000
      2          7           0        1.053637    0.478927    0.000000
      3          8           0       -0.859635   -1.266380    0.000000
      4          1           0       -1.571619   -1.930766    0.000000
 ---------------------------------------------------------------------
                    Distance matrix (angstroms):
                    1          2          3          4
     1  O    0.000000
     2  N    1.129174   0.000000
     3  O    2.407982   2.589731   0.000000
     4  H    3.315475   3.563508   0.973822   0.000000
 Symmetry turned off by external request.
 Stoichiometry    HNO2
 Framework group  CS[SG(HNO2)]
 Deg. of freedom     5
 Full point group                 CS      NOp   2
 Rotational constants (GHZ):     54.4237400      7.4080003      6.5204550
 Leave Link  202 at Mon Jan 14 18:27:35 2013, MaxMem=  268435456 cpu:       0.0
 (Enter /Users/talipovmr/usr/local/g09/l301.exe)
 Standard basis: 6-311G(2d,d,p) (5D, 7F)
 Ernie: Thresh=  0.10000D-02 Tol=  0.10000D-05 Strict=F.
 Integral buffers will be    131072 words long.
 Raffenetti 2 integral format.
 Two-electron integral symmetry is turned off.
    60 basis functions,   104 primitive gaussians,    63 cartesian basis functions
    12 alpha electrons       12 beta electrons
       nuclear repulsion energy        58.4149376251 Hartrees.
 IExCor=  402 DFT=T Ex+Corr=B3LYP ExCW=0 ScaHFX=  0.200000
 ScaDFX=  0.800000  0.720000  1.000000  0.810000 ScalE2=  1.000000  1.000000
 IRadAn=      0 IRanWt=     -1 IRanGd=            0 ICorTp=0
 NAtoms=    4 NActive=    4 NUniq=    4 SFac= 7.50D-01 NAtFMM=   80 NAOKFM=F Big=F
 Leave Link  301 at Mon Jan 14 18:27:35 2013, MaxMem=  268435456 cpu:       0.1
 (Enter /Users/talipovmr/usr/local/g09/l302.exe)
 NPDir=0 NMtPBC=     1 NCelOv=     1 NCel=       1 NClECP=     1 NCelD=      1
         NCelK=      1 NCelE2=     1 NClLst=     1 CellRange=     0.0.
 One-electron integrals computed using PRISM.
 NBasis=    60 RedAO= T  NBF=    60
 NBsUse=    60 1.00D-06 NBFU=    60
 Precomputing XC quadrature grid using
 IXCGrd= 2 IRadAn=           0 IRanWt=          -1 IRanGd=           0 AccXCQ= 1.00D-10.
 NRdTot=     250 NPtTot=       31868 NUsed=       33683 NTot=       33715
 NSgBfM=    63    63    63    63    63 NAtAll=     4     4.
 Leave Link  302 at Mon Jan 14 18:27:35 2013, MaxMem=  268435456 cpu:       0.4
 (Enter /Users/talipovmr/usr/local/g09/l303.exe)
 DipDrv:  MaxL=1.
 Leave Link  303 at Mon Jan 14 18:27:35 2013, MaxMem=  268435456 cpu:       0.1
 (Enter /Users/talipovmr/usr/local/g09/l401.exe)
 Initial guess read from the read-write file.
 B after Tr=     0.000000    0.000000    0.000000
         Rot=    1.000000    0.000000    0.000000    0.000000 Ang=   0.00 deg.
 Guess basis will be translated and rotated to current coordinates.
 Initial guess <Sx>= 0.0000 <Sy>= 0.0000 <Sz>= 0.0000 <S**2>= 0.7896 S= 0.5196
 Generating alternative initial guess.
 Harris functional with IExCor=  402 diagonalized for initial guess.
 ExpMin= 1.03D-01 ExpMax= 8.59D+03 ExpMxC= 1.30D+03 IAcc=1 IRadAn=         1 AccDes= 0.00D+00
 HarFok:  IExCor=  402 AccDes= 0.00D+00 IRadAn=         1 IDoV= 1
 ScaDFX=  1.000000  1.000000  1.000000  1.000000
 FoFCou: FMM=F IPFlag=           0 FMFlag=      100000 FMFlg1=           0
         NFxFlg=           0 DoJE=T BraDBF=F KetDBF=T FulRan=T
         Omega=  0.000000  0.000000  1.000000  0.000000  0.000000 ICntrl=     500 IOpCl=  0
         NMat0=    1 NMatS0=    1 NMatT0=    0 NMatD0=    1 NMtDS0=    0 NMtDT0=    0
         I1Cent=           4 NGrid=           0.
 Symmetry not used in FoFCou.
 Harris En= -205.842347649511    
 Leave Link  401 at Mon Jan 14 18:27:36 2013, MaxMem=  268435456 cpu:       0.8
 (Enter /Users/talipovmr/usr/local/g09/l502.exe)
 UHF open shell SCF:
 Requested convergence on RMS density matrix=1.00D-08 within 128 cycles.
 Requested convergence on MAX density matrix=1.00D-06.
 Requested convergence on             energy=1.00D-06.
 Level shift goal  0.100 maximum shift  0.100.
 No special actions if energy rises.
 Dynamic level shift is on during FON iterations.
 Using DIIS extrapolation, IDIIS=    10.
 Two-electron integral symmetry not used.
        33634 words used for storage of precomputed grid.
 Keep R1 and R2 ints in memory in canonical form, NReq=5010890.
 IEnd=       64451 IEndB=       64451 NGot=   268435456 MDV=   264325378
 LenX=   264325378 LenY=   264320968
 Symmetry not used in FoFDir.
 MinBra= 0 MaxBra= 2 Meth= 1.
 IRaf=       0 NMat=   1 IRICut=       1 DoRegI=T DoRafI=F ISym2E= 0 JSym2E=0.
 Integral accuracy reduced to 1.0D-05 until final iterations.

 Cycle   1  Pass 0  IDiag  1:
 E= -205.685348545444    
 DIIS: error= 3.42D-03 at cycle   1 NSaved=   1.
 NSaved= 1 IEnMin= 1 EnMin= -205.685348545444     IErMin= 1 ErrMin= 3.42D-03
 ErrMax= 3.42D-03 EMaxC= 1.00D+00 BMatC= 1.78D-03 BMatP= 1.78D-03
 IDIUse=1 WtCom= 1.00D+00 WtEn= 0.00D+00
 Coeff-Com:  0.100D+01
 Coeff:      0.100D+01
 Gap=     0.103 Goal=     0.100 Shift=    0.000
 T=  192. Gap= 0.088 NK=0 IS=    1 IE=   60
          NO(<0.9)=   0  NV(>0.1)=   0  12.00e < EF 0.00e >EF  Err=0.0D+00
 Gap=     0.190 Goal=     0.100 Shift=    0.000
 T=  192. Gap= 0.190 NK=0 IS=    1 IE=   60
          NO(<0.9)=   0  NV(>0.1)=   0  12.00e < EF 0.00e >EF  Err=0.0D+00
 GapD=    0.103 DampG=1.000 DampE=1.000 DampFc=1.0000 IDamp=-1.
 RMSDP=4.15D-04 MaxDP=4.86D-03              OVMax= 1.90D-02

 Cycle   2  Pass 0  IDiag  1:
 E= -205.686066883548     Delta-E=       -0.000718338103 Rises=F Damp=F
 DIIS: error= 9.98D-04 at cycle   2 NSaved=   2.
 NSaved= 2 IEnMin= 2 EnMin= -205.686066883548     IErMin= 2 ErrMin= 9.98D-04
 ErrMax= 9.98D-04 EMaxC= 1.00D+00 BMatC= 6.88D-05 BMatP= 1.78D-03
 IDIUse=1 WtCom= 1.00D+00 WtEn= 0.00D+00
 Coeff-Com: -0.717D-01 0.107D+01
 Coeff:     -0.717D-01 0.107D+01
 Gap=     0.089 Goal=     0.100 Shift=    0.011
 Gap=     0.189 Goal=     0.100 Shift=    0.000
 RMSDP=1.12D-04 MaxDP=1.47D-03 DE=-7.18D-04 OVMax= 8.07D-03

 Cycle   3  Pass 0  IDiag  1:
 E= -205.686098209720     Delta-E=       -0.000031326172 Rises=F Damp=F
 DIIS: error= 1.23D-03 at cycle   3 NSaved=   3.
 NSaved= 3 IEnMin= 3 EnMin= -205.686098209720     IErMin= 2 ErrMin= 9.98D-04
 ErrMax= 1.23D-03 EMaxC= 1.00D+00 BMatC= 1.00D-04 BMatP= 6.88D-05
 IDIUse=1 WtCom= 1.00D+00 WtEn= 0.00D+00
 Coeff-Com: -0.570D-01 0.645D+00 0.413D+00
 Coeff:     -0.570D-01 0.645D+00 0.413D+00
 Gap=     0.088 Goal=     0.100 Shift=    0.012
 Gap=     0.189 Goal=     0.100 Shift=    0.000
 GapD=    0.088 DampG=0.500 DampE=1.000 DampFc=0.5000 IDamp=-1.
 Damping current iteration by 5.00D-01
 RMSDP=5.64D-05 MaxDP=1.09D-03 DE=-3.13D-05 OVMax= 2.34D-03

 Cycle   4  Pass 0  IDiag  1:
 E= -205.686113683412     Delta-E=       -0.000015473693 Rises=F Damp=T
 DIIS: error= 3.21D-04 at cycle   4 NSaved=   4.
 NSaved= 4 IEnMin= 4 EnMin= -205.686113683412     IErMin= 4 ErrMin= 3.21D-04
 ErrMax= 3.21D-04 EMaxC= 1.00D+00 BMatC= 1.10D-05 BMatP= 6.88D-05
 IDIUse=1 WtCom= 1.00D+00 WtEn= 0.00D+00
 Coeff-Com:  0.240D-02-0.150D+00-0.482D+00 0.163D+01
 Coeff:      0.240D-02-0.150D+00-0.482D+00 0.163D+01
 Gap=     0.088 Goal=     0.100 Shift=    0.012
 Gap=     0.189 Goal=     0.100 Shift=    0.000
 RMSDP=4.79D-05 MaxDP=7.25D-04 DE=-1.55D-05 OVMax= 3.12D-03

 Cycle   5  Pass 0  IDiag  1:
 E= -205.686124236244     Delta-E=       -0.000010552831 Rises=F Damp=F
 DIIS: error= 1.14D-04 at cycle   5 NSaved=   5.
 NSaved= 5 IEnMin= 5 EnMin= -205.686124236244     IErMin= 5 ErrMin= 1.14D-04
 ErrMax= 1.14D-04 EMaxC= 1.00D+00 BMatC= 1.99D-06 BMatP= 1.10D-05
 IDIUse=1 WtCom= 1.00D+00 WtEn= 0.00D+00
 Coeff-Com:  0.969D-02-0.177D+00-0.223D+00 0.611D+00 0.779D+00
 Coeff:      0.969D-02-0.177D+00-0.223D+00 0.611D+00 0.779D+00
 Gap=     0.088 Goal=     0.100 Shift=    0.012
 Gap=     0.189 Goal=     0.100 Shift=    0.000
 RMSDP=2.14D-05 MaxDP=3.07D-04 DE=-1.06D-05 OVMax= 1.48D-03

 Cycle   6  Pass 0  IDiag  1:
 E= -205.686125047629     Delta-E=       -0.000000811385 Rises=F Damp=F
 DIIS: error= 1.02D-04 at cycle   6 NSaved=   6.
 NSaved= 6 IEnMin= 6 EnMin= -205.686125047629     IErMin= 6 ErrMin= 1.02D-04
 ErrMax= 1.02D-04 EMaxC= 1.00D+00 BMatC= 1.37D-06 BMatP= 1.99D-06
 IDIUse=1 WtCom= 1.00D+00 WtEn= 0.00D+00
 Coeff-Com:  0.755D-02-0.116D+00-0.886D-01 0.177D+00 0.553D+00 0.467D+00
 Coeff:      0.755D-02-0.116D+00-0.886D-01 0.177D+00 0.553D+00 0.467D+00
 Gap=     0.088 Goal=     0.100 Shift=    0.012
 Gap=     0.189 Goal=     0.100 Shift=    0.000
 RMSDP=9.97D-06 MaxDP=1.41D-04 DE=-8.11D-07 OVMax= 7.03D-04

 Initial convergence to 1.0D-05 achieved.  Increase integral accuracy.
 Cycle   7  Pass 1  IDiag  1:
 E= -205.686128700710     Delta-E=       -0.000003653081 Rises=F Damp=F
 DIIS: error= 3.52D-05 at cycle   1 NSaved=   1.
 NSaved= 1 IEnMin= 1 EnMin= -205.686128700710     IErMin= 1 ErrMin= 3.52D-05
 ErrMax= 3.52D-05 EMaxC= 1.00D+00 BMatC= 2.62D-07 BMatP= 2.62D-07
 IDIUse=1 WtCom= 1.00D+00 WtEn= 0.00D+00
 Coeff-Com:  0.100D+01
 Coeff:      0.100D+01
 Gap=     0.088 Goal=     0.100 Shift=    0.012
 Gap=     0.189 Goal=     0.100 Shift=    0.000
 RMSDP=9.97D-06 MaxDP=1.41D-04 DE=-3.65D-06 OVMax= 2.09D-04

 Cycle   8  Pass 1  IDiag  1:
 E= -205.686128715991     Delta-E=       -0.000000015281 Rises=F Damp=F
 DIIS: error= 4.11D-05 at cycle   2 NSaved=   2.
 NSaved= 2 IEnMin= 2 EnMin= -205.686128715991     IErMin= 1 ErrMin= 3.52D-05
 ErrMax= 4.11D-05 EMaxC= 1.00D+00 BMatC= 2.17D-07 BMatP= 2.62D-07
 IDIUse=1 WtCom= 1.00D+00 WtEn= 0.00D+00
 Coeff-Com:  0.469D+00 0.531D+00
 Coeff:      0.469D+00 0.531D+00
 Gap=     0.088 Goal=     0.100 Shift=    0.012
 Gap=     0.189 Goal=     0.100 Shift=    0.000
 RMSDP=4.39D-06 MaxDP=5.35D-05 DE=-1.53D-08 OVMax= 3.39D-04

 Cycle   9  Pass 1  IDiag  1:
 E= -205.686128738630     Delta-E=       -0.000000022639 Rises=F Damp=F
 DIIS: error= 2.58D-05 at cycle   3 NSaved=   3.
 NSaved= 3 IEnMin= 3 EnMin= -205.686128738630     IErMin= 3 ErrMin= 2.58D-05
 ErrMax= 2.58D-05 EMaxC= 1.00D+00 BMatC= 1.09D-07 BMatP= 2.17D-07
 IDIUse=1 WtCom= 1.00D+00 WtEn= 0.00D+00
 Coeff-Com:  0.354D-01 0.409D+00 0.556D+00
 Coeff:      0.354D-01 0.409D+00 0.556D+00
 Gap=     0.088 Goal=     0.100 Shift=    0.012
 Gap=     0.189 Goal=     0.100 Shift=    0.000
 RMSDP=1.80D-06 MaxDP=2.14D-05 DE=-2.26D-08 OVMax= 1.28D-04

 Cycle  10  Pass 1  IDiag  1:
 E= -205.686128759718     Delta-E=       -0.000000021088 Rises=F Damp=F
 DIIS: error= 8.80D-06 at cycle   4 NSaved=   4.
 NSaved= 4 IEnMin= 4 EnMin= -205.686128759718     IErMin= 4 ErrMin= 8.80D-06
 ErrMax= 8.80D-06 EMaxC= 1.00D+00 BMatC= 5.99D-09 BMatP= 1.09D-07
 IDIUse=1 WtCom= 1.00D+00 WtEn= 0.00D+00
 Coeff-Com: -0.205D-01 0.188D+00 0.288D+00 0.544D+00
 Coeff:     -0.205D-01 0.188D+00 0.288D+00 0.544D+00
 Gap=     0.088 Goal=     0.100 Shift=    0.012
 Gap=     0.189 Goal=     0.100 Shift=    0.000
 RMSDP=5.08D-07 MaxDP=6.21D-06 DE=-2.11D-08 OVMax= 2.07D-05

 Cycle  11  Pass 1  IDiag  1:
 E= -205.686128760643     Delta-E=       -0.000000000925 Rises=F Damp=F
 DIIS: error= 7.79D-06 at cycle   5 NSaved=   5.
 NSaved= 5 IEnMin= 5 EnMin= -205.686128760643     IErMin= 5 ErrMin= 7.79D-06
 ErrMax= 7.79D-06 EMaxC= 1.00D+00 BMatC= 2.79D-09 BMatP= 5.99D-09
 IDIUse=1 WtCom= 1.00D+00 WtEn= 0.00D+00
 Coeff-Com: -0.198D-01 0.544D-01 0.923D-01 0.400D+00 0.473D+00
 Coeff:     -0.198D-01 0.544D-01 0.923D-01 0.400D+00 0.473D+00
 Gap=     0.088 Goal=     0.100 Shift=    0.012
 Gap=     0.189 Goal=     0.100 Shift=    0.000
 RMSDP=3.74D-07 MaxDP=6.24D-06 DE=-9.25D-10 OVMax= 2.42D-05

 Cycle  12  Pass 1  IDiag  1:
 E= -205.686128761345     Delta-E=       -0.000000000702 Rises=F Damp=F
 DIIS: error= 2.38D-06 at cycle   6 NSaved=   6.
 NSaved= 6 IEnMin= 6 EnMin= -205.686128761345     IErMin= 6 ErrMin= 2.38D-06
 ErrMax= 2.38D-06 EMaxC= 1.00D+00 BMatC= 3.43D-10 BMatP= 2.79D-09
 IDIUse=1 WtCom= 1.00D+00 WtEn= 0.00D+00
 Coeff-Com:  0.316D-03-0.839D-01-0.128D+00-0.133D+00 0.209D+00 0.114D+01
 Coeff:      0.316D-03-0.839D-01-0.128D+00-0.133D+00 0.209D+00 0.114D+01
 Gap=     0.088 Goal=     0.100 Shift=    0.012
 Gap=     0.189 Goal=     0.100 Shift=    0.000
 RMSDP=2.89D-07 MaxDP=3.45D-06 DE=-7.02D-10 OVMax= 2.08D-05

 Cycle  13  Pass 1  IDiag  1:
 E= -205.686128761630     Delta-E=       -0.000000000286 Rises=F Damp=F
 DIIS: error= 6.94D-07 at cycle   7 NSaved=   7.
 NSaved= 7 IEnMin= 7 EnMin= -205.686128761630     IErMin= 7 ErrMin= 6.94D-07
 ErrMax= 6.94D-07 EMaxC= 1.00D+00 BMatC= 1.89D-11 BMatP= 3.43D-10
 IDIUse=1 WtCom= 1.00D+00 WtEn= 0.00D+00
 Coeff-Com:  0.288D-02-0.177D-01-0.301D-01-0.701D-01-0.180D-01 0.174D+00
 Coeff-Com:  0.959D+00
 Coeff:      0.288D-02-0.177D-01-0.301D-01-0.701D-01-0.180D-01 0.174D+00
 Coeff:      0.959D+00
 Gap=     0.088 Goal=     0.100 Shift=    0.012
 Gap=     0.189 Goal=     0.100 Shift=    0.000
 RMSDP=7.33D-08 MaxDP=1.18D-06 DE=-2.86D-10 OVMax= 4.49D-06

 Cycle  14  Pass 1  IDiag  1:
 E= -205.686128761652     Delta-E=       -0.000000000022 Rises=F Damp=F
 DIIS: error= 3.08D-07 at cycle   8 NSaved=   8.
 NSaved= 8 IEnMin= 8 EnMin= -205.686128761652     IErMin= 8 ErrMin= 3.08D-07
 ErrMax= 3.08D-07 EMaxC= 1.00D+00 BMatC= 2.67D-12 BMatP= 1.89D-11
 IDIUse=1 WtCom= 1.00D+00 WtEn= 0.00D+00
 Coeff-Com: -0.922D-03 0.127D-01 0.215D-01 0.289D-01-0.249D-01-0.165D+00
 Coeff-Com: -0.285D+00 0.141D+01
 Coeff:     -0.922D-03 0.127D-01 0.215D-01 0.289D-01-0.249D-01-0.165D+00
 Coeff:     -0.285D+00 0.141D+01
 Gap=     0.088 Goal=     0.100 Shift=    0.012
 Gap=     0.189 Goal=     0.100 Shift=    0.000
 RMSDP=3.54D-08 MaxDP=7.32D-07 DE=-2.23D-11 OVMax= 2.59D-06

 Cycle  15  Pass 1  IDiag  1:
 E= -205.686128761656     Delta-E=       -0.000000000004 Rises=F Damp=F
 DIIS: error= 1.19D-07 at cycle   9 NSaved=   9.
 NSaved= 9 IEnMin= 9 EnMin= -205.686128761656     IErMin= 9 ErrMin= 1.19D-07
 ErrMax= 1.19D-07 EMaxC= 1.00D+00 BMatC= 5.22D-13 BMatP= 2.67D-12
 IDIUse=1 WtCom= 1.00D+00 WtEn= 0.00D+00
 Coeff-Com: -0.392D-03 0.240D-02 0.500D-02 0.114D-01-0.180D-02-0.138D-01
 Coeff-Com: -0.161D+00 0.208D-01 0.114D+01
 Coeff:     -0.392D-03 0.240D-02 0.500D-02 0.114D-01-0.180D-02-0.138D-01
 Coeff:     -0.161D+00 0.208D-01 0.114D+01
 Gap=     0.088 Goal=     0.100 Shift=    0.012
 Gap=     0.189 Goal=     0.100 Shift=    0.000
 RMSDP=1.13D-08 MaxDP=2.25D-07 DE=-3.98D-12 OVMax= 8.29D-07

 Cycle  16  Pass 1  IDiag  1:
 E= -205.686128761657     Delta-E=       -0.000000000001 Rises=F Damp=F
 DIIS: error= 2.50D-08 at cycle  10 NSaved=  10.
 NSaved=10 IEnMin=10 EnMin= -205.686128761657     IErMin=10 ErrMin= 2.50D-08
 ErrMax= 2.50D-08 EMaxC= 1.00D+00 BMatC= 2.54D-14 BMatP= 5.22D-13
 IDIUse=1 WtCom= 1.00D+00 WtEn= 0.00D+00
 Coeff-Com:  0.108D-03-0.142D-02-0.263D-02-0.306D-02 0.327D-02 0.171D-01
 Coeff-Com:  0.337D-01-0.161D+00-0.381D-01 0.115D+01
 Coeff:      0.108D-03-0.142D-02-0.263D-02-0.306D-02 0.327D-02 0.171D-01
 Coeff:      0.337D-01-0.161D+00-0.381D-01 0.115D+01
 Gap=     0.088 Goal=     0.100 Shift=    0.012
 Gap=     0.189 Goal=     0.100 Shift=    0.000
 RMSDP=3.35D-09 MaxDP=6.38D-08 DE=-7.96D-13 OVMax= 2.28D-07

 SCF Done:  E(UB3LYP) =  -205.686128762     A.U. after   16 cycles
             Convg  =    0.3348D-08             -V/T =  2.0020
 <Sx>= 0.0000 <Sy>= 0.0000 <Sz>= 0.0000 <S**2>= 0.7881 S= 0.5189
 <L.S>= 0.000000000000E+00
 KE= 2.052807746719D+02 PE=-6.027555690457D+02 EE= 1.333737279870D+02
 Annihilation of the first spin contaminant:
 S**2 before annihilation     0.7881,   after     0.0156
 Leave Link  502 at Mon Jan 14 18:27:40 2013, MaxMem=  268435456 cpu:       6.1
 (Enter /Users/talipovmr/usr/local/g09/l508.exe)
 QCSCF skips out because SCF is already converged.
 Leave Link  508 at Mon Jan 14 18:27:40 2013, MaxMem=  268435456 cpu:       0.0
 (Enter /Users/talipovmr/usr/local/g09/l801.exe)
 Range of M.O.s used for correlation:     1    60
 NBasis=    60 NAE=    12 NBE=    12 NFC=     0 NFV=     0
 NROrb=     60 NOA=    12 NOB=    12 NVA=    48 NVB=    48

 **** Warning!!: The smallest alpha delta epsilon is  0.88164834D-01

 Leave Link  801 at Mon Jan 14 18:27:40 2013, MaxMem=  268435456 cpu:       0.1
 (Enter /Users/talipovmr/usr/local/g09/l1101.exe)
 Leave Link 1101 at Mon Jan 14 18:27:40 2013, MaxMem=  268435456 cpu:       0.1
 (Enter /Users/talipovmr/usr/local/g09/l1102.exe)
 Symmetrizing basis deriv contribution to polar:
 IMax=3 JMax=2 DiffMx= 0.00D+00
 Leave Link 1102 at Mon Jan 14 18:27:40 2013, MaxMem=  268435456 cpu:       0.1
 (Enter /Users/talipovmr/usr/local/g09/l1110.exe)
 Leave Link 1110 at Mon Jan 14 18:27:40 2013, MaxMem=  268435456 cpu:       0.1
 (Enter /Users/talipovmr/usr/local/g09/l1002.exe)
 Minotr:  UHF open shell wavefunction.
 Leave Link 1002 at Mon Jan 14 18:27:40 2013, MaxMem=  268435456 cpu:       0.1
 (Enter /Users/talipovmr/usr/local/g09/l701.exe)
 Compute integral first derivatives.
 ... and contract with generalized density number  0.
 Leave Link  701 at Mon Jan 14 18:27:40 2013, MaxMem=  268435456 cpu:       0.3
 (Enter /Users/talipovmr/usr/local/g09/l702.exe)
 L702 exits ... SP integral derivatives will be done elsewhere.
 Leave Link  702 at Mon Jan 14 18:27:40 2013, MaxMem=  268435456 cpu:       0.1
 (Enter /Users/talipovmr/usr/local/g09/l703.exe)
 Compute integral first derivatives, UseDBF=F ICtDFT=           0.
 Integral derivatives from FoFDir, PRISM(SPDF).
 Calling FoFJK, ICntrl=      2147 FMM=F ISym2X=0 I1Cent= 0 IOpClX= 1 NMat=1 NMatS=1 NMatT=0.
 FoFCou: FMM=F IPFlag=           0 FMFlag=      100000 FMFlg1=         800
         NFxFlg=           0 DoJE=F BraDBF=F KetDBF=F FulRan=T
         Omega=  0.000000  0.000000  1.000000  0.000000  0.000000 ICntrl=    2147 IOpCl=  1
         NMat0=    1 NMatS0=    1 NMatT0=    0 NMatD0=    1 NMtDS0=    0 NMtDT0=    0
         I1Cent=           0 NGrid=           0.
 Symmetry not used in FoFCou.
 Leave Link  703 at Mon Jan 14 18:27:41 2013, MaxMem=  268435456 cpu:       1.3
 (Enter /Users/talipovmr/usr/local/g09/l716.exe)
 Dipole        =-1.20786920D-01 1.07688995D-01 6.18553707D-12
 Polarizability= 0.00000000D+00 0.00000000D+00 0.00000000D+00
                 0.00000000D+00 0.00000000D+00 0.00000000D+00
 -------------------------------------------------------------------
 Center     Atomic                   Forces (Hartrees/Bohr)
 Number     Number              X              Y              Z
 -------------------------------------------------------------------
      1        8           0.000515648    0.000413639    0.000000000
      2        7          -0.000691214   -0.000346878    0.000000000
      3        8          -0.000887412   -0.000749040    0.000000000
      4        1           0.001062979    0.000682279    0.000000000
 -------------------------------------------------------------------
 Cartesian Forces:  Max     0.001062979 RMS     0.000575839
 Leave Link  716 at Mon Jan 14 18:27:41 2013, MaxMem=  268435456 cpu:       0.1
 (Enter /Users/talipovmr/usr/local/g09/l123.exe)
 IRC-IRC-IRC-IRC-IRC-IRC-IRC-IRC-IRC-IRC-IRC-IRC-IRC-IRC-IRC-IRC-IRC-IRC
 Pt  1 Step number   1 out of a maximum of  20
 Using modified Bulirsch-Stoer corrector interation.
   Using distance weighted interpolants to fit PES.
    Cycle     1 NS=     2
    Cycle     2 NS=     4 Truncation Error =  0.014748840
    Cycle     3 NS=     6 Truncation Error =  0.002997165
    Cycle     4 NS=     8 Truncation Error =  0.001681820
    Cycle     5 NS=    12 Truncation Error =  0.001258335
    Cycle     6 NS=    16 Truncation Error =  0.000707203
    Cycle     7 NS=    24 Truncation Error =  0.000993634
    Cycle     8 NS=    32 Truncation Error =  0.001042764
    Cycle     9 NS=    48 Truncation Error =  0.000961648
    Cycle    10 NS=    64 Truncation Error =  0.001170342
    Cycle    11 NS=    96 Truncation Error =  0.001317658
    Cycle    12 NS=   128 Truncation Error =  0.002018237
    Cycle    13 NS=   192 Truncation Error =  0.002360169
    Cycle    14 NS=   256 Truncation Error =  0.001066550
    Cycle    15 NS=   384 Truncation Error =  0.000226311
    Cycle    16 NS=   512 Truncation Error =  0.000027166
    Cycle    17 NS=   768 Truncation Error =  0.000001236
    Cycle    18 NS=  1024 Truncation Error =  0.000000082
 BS completed in   18 cycles and    3576 integration steps.
 SUMMARY OF CORRECTOR INTEGRATION:
   Original End Point Energy  =  -205.686129
   Corrected End Point Energy =  -205.686130
   Old End-Start Dist.        =     0.145531
   New End-Start Dist.        =     0.145264
   New End-Old End Dist.      =     0.002991
 CORRECTOR INTEGRATION CONVERGENCE:
   Recorrection delta-x convergence threshold:    0.010000
   Delta-x Convergence Met
 Point Number:   1          Path Number:   1
                    CURRENT STRUCTURE
                Cartesian Coordinates (Ang):                
 ---------------------------------------------------------------------
 Center     Atomic                     Coordinates (Angstroms)
 Number     Number                        X           Y           Z
 ---------------------------------------------------------------------
      1          8                    0.036329    0.968580    0.000000
      2          7                    1.053570    0.478890    0.000000
      3          8                   -0.859628   -1.266363    0.000000
      4          1                   -1.570634   -1.929853    0.000000
 ---------------------------------------------------------------------
   CHANGE IN THE REACTION COORDINATE =    0.14526
   NET REACTION COORDINATE UP TO THIS POINT =    0.14526
  # OF POINTS ALONG THE PATH =   1
  # OF STEPS =   1

 Calculating another point on the path.
 Point Number  2 in FORWARD path direction.
 Using LQA Reaction Path Following.
   LQA: T_Est iteration completed in    3 iterations.
 IRC-IRC-IRC-IRC-IRC-IRC-IRC-IRC-IRC-IRC-IRC-IRC-IRC-IRC-IRC-IRC-IRC-IRC
 Leave Link  123 at Mon Jan 14 18:27:41 2013, MaxMem=  268435456 cpu:       0.0
 (Enter /Users/talipovmr/usr/local/g09/l202.exe)
                          Input orientation:                          
 ---------------------------------------------------------------------
 Center     Atomic      Atomic             Coordinates (Angstroms)
 Number     Number       Type             X           Y           Z
 ---------------------------------------------------------------------
      1          8           0        0.038963    0.978001    0.000000
      2          7           0        1.047086    0.469331    0.000000
      3          8           0       -0.858523   -1.265383    0.000000
      4          1           0       -1.536560   -1.966087    0.000000
 ---------------------------------------------------------------------
                    Distance matrix (angstroms):
                    1          2          3          4
     1  O    0.000000
     2  N    1.129185   0.000000
     3  O    2.416248   2.576932   0.000000
     4  H    3.339150   3.550561   0.975048   0.000000
 Symmetry turned off by external request.
 Stoichiometry    HNO2
 Framework group  CS[SG(HNO2)]
 Deg. of freedom     5
 Full point group                 CS      NOp   2
 Rotational constants (GHZ):     54.1227155      7.4213174      6.5264142
 Leave Link  202 at Mon Jan 14 18:27:41 2013, MaxMem=  268435456 cpu:       0.0
 (Enter /Users/talipovmr/usr/local/g09/l301.exe)
 Standard basis: 6-311G(2d,d,p) (5D, 7F)
 Ernie: Thresh=  0.10000D-02 Tol=  0.10000D-05 Strict=F.
 Integral buffers will be    131072 words long.
 Raffenetti 2 integral format.
 Two-electron integral symmetry is turned off.
    60 basis functions,   104 primitive gaussians,    63 cartesian basis functions
    12 alpha electrons       12 beta electrons
       nuclear repulsion energy        58.4126815315 Hartrees.
 IExCor=  402 DFT=T Ex+Corr=B3LYP ExCW=0 ScaHFX=  0.200000
 ScaDFX=  0.800000  0.720000  1.000000  0.810000 ScalE2=  1.000000  1.000000
 IRadAn=      0 IRanWt=     -1 IRanGd=            0 ICorTp=0
 NAtoms=    4 NActive=    4 NUniq=    4 SFac= 7.50D-01 NAtFMM=   80 NAOKFM=F Big=F
 Leave Link  301 at Mon Jan 14 18:27:41 2013, MaxMem=  268435456 cpu:       0.1
 (Enter /Users/talipovmr/usr/local/g09/l302.exe)
 NPDir=0 NMtPBC=     1 NCelOv=     1 NCel=       1 NClECP=     1 NCelD=      1
         NCelK=      1 NCelE2=     1 NClLst=     1 CellRange=     0.0.
 One-electron integrals computed using PRISM.
 NBasis=    60 RedAO= T  NBF=    60
 NBsUse=    60 1.00D-06 NBFU=    60
 Precomputing XC quadrature grid using
 IXCGrd= 2 IRadAn=           0 IRanWt=          -1 IRanGd=           0 AccXCQ= 1.00D-10.
 NRdTot=     250 NPtTot=       31722 NUsed=       33537 NTot=       33569
 NSgBfM=    63    63    63    63    63 NAtAll=     4     4.
 Leave Link  302 at Mon Jan 14 18:27:41 2013, MaxMem=  268435456 cpu:       0.4
 (Enter /Users/talipovmr/usr/local/g09/l303.exe)
 DipDrv:  MaxL=1.
 Leave Link  303 at Mon Jan 14 18:27:41 2013, MaxMem=  268435456 cpu:       0.1
 (Enter /Users/talipovmr/usr/local/g09/l401.exe)
 Initial guess read from the read-write file.
 B after Tr=     0.000000    0.000000    0.000000
         Rot=    1.000000    0.000000    0.000000    0.000000 Ang=   0.00 deg.
 Guess basis will be translated and rotated to current coordinates.
 Initial guess <Sx>= 0.0000 <Sy>= 0.0000 <Sz>= 0.0000 <S**2>= 0.7881 S= 0.5189
 Generating alternative initial guess.
 Harris functional with IExCor=  402 diagonalized for initial guess.
 ExpMin= 1.03D-01 ExpMax= 8.59D+03 ExpMxC= 1.30D+03 IAcc=1 IRadAn=         1 AccDes= 0.00D+00
 HarFok:  IExCor=  402 AccDes= 0.00D+00 IRadAn=         1 IDoV= 1
 ScaDFX=  1.000000  1.000000  1.000000  1.000000
 FoFCou: FMM=F IPFlag=           0 FMFlag=      100000 FMFlg1=           0
         NFxFlg=           0 DoJE=T BraDBF=F KetDBF=T FulRan=T
         Omega=  0.000000  0.000000  1.000000  0.000000  0.000000 ICntrl=     500 IOpCl=  0
         NMat0=    1 NMatS0=    1 NMatT0=    0 NMatD0=    1 NMtDS0=    0 NMtDT0=    0
         I1Cent=           4 NGrid=           0.
 Symmetry not used in FoFCou.
 Harris En= -205.842330968944    
 Leave Link  401 at Mon Jan 14 18:27:42 2013, MaxMem=  268435456 cpu:       0.5
 (Enter /Users/talipovmr/usr/local/g09/l502.exe)
 UHF open shell SCF:
 Requested convergence on RMS density matrix=1.00D-08 within 128 cycles.
 Requested convergence on MAX density matrix=1.00D-06.
 Requested convergence on             energy=1.00D-06.
 Level shift goal  0.100 maximum shift  0.100.
 No special actions if energy rises.
 Dynamic level shift is on during FON iterations.
 Using DIIS extrapolation, IDIIS=    10.
 Two-electron integral symmetry not used.
        33488 words used for storage of precomputed grid.
 Keep R1 and R2 ints in memory in canonical form, NReq=5010744.
 IEnd=       64305 IEndB=       64305 NGot=   268435456 MDV=   264325524
 LenX=   264325524 LenY=   264321114
 Symmetry not used in FoFDir.
 MinBra= 0 MaxBra= 2 Meth= 1.
 IRaf=       0 NMat=   1 IRICut=       1 DoRegI=T DoRafI=F ISym2E= 0 JSym2E=0.
 Integral accuracy reduced to 1.0D-05 until final iterations.

 Cycle   1  Pass 0  IDiag  1:
 E= -205.685428059559    
 DIIS: error= 3.36D-03 at cycle   1 NSaved=   1.
 NSaved= 1 IEnMin= 1 EnMin= -205.685428059559     IErMin= 1 ErrMin= 3.36D-03
 ErrMax= 3.36D-03 EMaxC= 1.00D+00 BMatC= 1.76D-03 BMatP= 1.76D-03
 IDIUse=1 WtCom= 1.00D+00 WtEn= 0.00D+00
 Coeff-Com:  0.100D+01
 Coeff:      0.100D+01
 Gap=     0.102 Goal=     0.100 Shift=    0.000
 T=  183. Gap= 0.088 NK=0 IS=    1 IE=   60
          NO(<0.9)=   0  NV(>0.1)=   0  12.00e < EF 0.00e >EF  Err=5.1D-11
 Gap=     0.189 Goal=     0.100 Shift=    0.000
 T=  183. Gap= 0.189 NK=0 IS=    1 IE=   60
          NO(<0.9)=   0  NV(>0.1)=   0  12.00e < EF 0.00e >EF  Err=0.0D+00
 GapD=    0.102 DampG=1.000 DampE=1.000 DampFc=1.0000 IDamp=-1.
 RMSDP=4.11D-04 MaxDP=4.76D-03              OVMax= 1.86D-02

 Cycle   2  Pass 0  IDiag  1:
 E= -205.686133723497     Delta-E=       -0.000705663938 Rises=F Damp=F
 DIIS: error= 9.87D-04 at cycle   2 NSaved=   2.
 NSaved= 2 IEnMin= 2 EnMin= -205.686133723497     IErMin= 2 ErrMin= 9.87D-04
 ErrMax= 9.87D-04 EMaxC= 1.00D+00 BMatC= 6.84D-05 BMatP= 1.76D-03
 IDIUse=1 WtCom= 1.00D+00 WtEn= 0.00D+00
 Coeff-Com: -0.703D-01 0.107D+01
 Coeff:     -0.703D-01 0.107D+01
 Gap=     0.089 Goal=     0.100 Shift=    0.011
 Gap=     0.188 Goal=     0.100 Shift=    0.000
 RMSDP=1.13D-04 MaxDP=1.52D-03 DE=-7.06D-04 OVMax= 7.88D-03

 Cycle   3  Pass 0  IDiag  1:
 E= -205.686161461935     Delta-E=       -0.000027738438 Rises=F Damp=F
 DIIS: error= 1.27D-03 at cycle   3 NSaved=   3.
 NSaved= 3 IEnMin= 3 EnMin= -205.686161461935     IErMin= 2 ErrMin= 9.87D-04
 ErrMax= 1.27D-03 EMaxC= 1.00D+00 BMatC= 1.10D-04 BMatP= 6.84D-05
 IDIUse=1 WtCom= 1.00D+00 WtEn= 0.00D+00
 Coeff-Com: -0.578D-01 0.659D+00 0.398D+00
 Coeff:     -0.578D-01 0.659D+00 0.398D+00
 Gap=     0.088 Goal=     0.100 Shift=    0.012
 Gap=     0.189 Goal=     0.100 Shift=    0.000
 GapD=    0.088 DampG=0.500 DampE=1.000 DampFc=0.5000 IDamp=-1.
 Damping current iteration by 5.00D-01
 RMSDP=5.93D-05 MaxDP=1.13D-03 DE=-2.77D-05 OVMax= 2.33D-03

 Cycle   4  Pass 0  IDiag  1:
 E= -205.686178433190     Delta-E=       -0.000016971255 Rises=F Damp=T
 DIIS: error= 3.64D-04 at cycle   4 NSaved=   4.
 NSaved= 4 IEnMin= 4 EnMin= -205.686178433190     IErMin= 4 ErrMin= 3.64D-04
 ErrMax= 3.64D-04 EMaxC= 1.00D+00 BMatC= 1.32D-05 BMatP= 6.84D-05
 IDIUse=1 WtCom= 1.00D+00 WtEn= 0.00D+00
 Coeff-Com:  0.210D-02-0.142D+00-0.539D+00 0.168D+01
 Coeff:      0.210D-02-0.142D+00-0.539D+00 0.168D+01
 Gap=     0.088 Goal=     0.100 Shift=    0.012
 Gap=     0.189 Goal=     0.100 Shift=    0.000
 RMSDP=4.92D-05 MaxDP=7.45D-04 DE=-1.70D-05 OVMax= 3.08D-03

 Cycle   5  Pass 0  IDiag  1:
 E= -205.686189204900     Delta-E=       -0.000010771710 Rises=F Damp=F
 DIIS: error= 1.21D-04 at cycle   5 NSaved=   5.
 NSaved= 5 IEnMin= 5 EnMin= -205.686189204900     IErMin= 5 ErrMin= 1.21D-04
 ErrMax= 1.21D-04 EMaxC= 1.00D+00 BMatC= 2.60D-06 BMatP= 1.32D-05
 IDIUse=1 WtCom= 1.00D+00 WtEn= 0.00D+00
 Coeff-Com:  0.913D-02-0.177D+00-0.284D+00 0.771D+00 0.681D+00
 Coeff:      0.913D-02-0.177D+00-0.284D+00 0.771D+00 0.681D+00
 Gap=     0.088 Goal=     0.100 Shift=    0.012
 Gap=     0.189 Goal=     0.100 Shift=    0.000
 RMSDP=2.20D-05 MaxDP=3.09D-04 DE=-1.08D-05 OVMax= 1.49D-03

 Cycle   6  Pass 0  IDiag  1:
 E= -205.686190066349     Delta-E=       -0.000000861449 Rises=F Damp=F
 DIIS: error= 1.07D-04 at cycle   6 NSaved=   6.
 NSaved= 6 IEnMin= 6 EnMin= -205.686190066349     IErMin= 6 ErrMin= 1.07D-04
 ErrMax= 1.07D-04 EMaxC= 1.00D+00 BMatC= 1.70D-06 BMatP= 2.60D-06
 IDIUse=1 WtCom= 1.00D+00 WtEn= 0.00D+00
 Coeff-Com:  0.781D-02-0.121D+00-0.954D-01 0.191D+00 0.517D+00 0.501D+00
 Coeff:      0.781D-02-0.121D+00-0.954D-01 0.191D+00 0.517D+00 0.501D+00
 Gap=     0.088 Goal=     0.100 Shift=    0.012
 Gap=     0.189 Goal=     0.100 Shift=    0.000
 RMSDP=1.06D-05 MaxDP=1.60D-04 DE=-8.61D-07 OVMax= 6.62D-04

 Cycle   7  Pass 0  IDiag  1:
 E= -205.686190531293     Delta-E=       -0.000000464945 Rises=F Damp=F
 DIIS: error= 1.88D-05 at cycle   7 NSaved=   7.
 NSaved= 7 IEnMin= 7 EnMin= -205.686190531293     IErMin= 7 ErrMin= 1.88D-05
 ErrMax= 1.88D-05 EMaxC= 1.00D+00 BMatC= 7.21D-08 BMatP= 1.70D-06
 IDIUse=1 WtCom= 1.00D+00 WtEn= 0.00D+00
 Coeff-Com:  0.170D-02-0.209D-01-0.346D-03-0.342D-01 0.908D-01 0.178D+00
 Coeff-Com:  0.785D+00
 Coeff:      0.170D-02-0.209D-01-0.346D-03-0.342D-01 0.908D-01 0.178D+00
 Coeff:      0.785D+00
 Gap=     0.088 Goal=     0.100 Shift=    0.012
 Gap=     0.189 Goal=     0.100 Shift=    0.000
 RMSDP=2.95D-06 MaxDP=3.55D-05 DE=-4.65D-07 OVMax= 2.26D-04

 Initial convergence to 1.0D-05 achieved.  Increase integral accuracy.
 Cycle   8  Pass 1  IDiag  1:
 E= -205.686194094835     Delta-E=       -0.000003563542 Rises=F Damp=F
 DIIS: error= 2.21D-05 at cycle   1 NSaved=   1.
 NSaved= 1 IEnMin= 1 EnMin= -205.686194094835     IErMin= 1 ErrMin= 2.21D-05
 ErrMax= 2.21D-05 EMaxC= 1.00D+00 BMatC= 1.74D-07 BMatP= 1.74D-07
 IDIUse=1 WtCom= 1.00D+00 WtEn= 0.00D+00
 Coeff-Com:  0.100D+01
 Coeff:      0.100D+01
 Gap=     0.088 Goal=     0.100 Shift=    0.012
 Gap=     0.189 Goal=     0.100 Shift=    0.000
 RMSDP=2.95D-06 MaxDP=3.55D-05 DE=-3.56D-06 OVMax= 9.82D-05

 Cycle   9  Pass 1  IDiag  1:
 E= -205.686194124848     Delta-E=       -0.000000030012 Rises=F Damp=F
 DIIS: error= 1.03D-05 at cycle   2 NSaved=   2.
 NSaved= 2 IEnMin= 2 EnMin= -205.686194124848     IErMin= 2 ErrMin= 1.03D-05
 ErrMax= 1.03D-05 EMaxC= 1.00D+00 BMatC= 1.34D-08 BMatP= 1.74D-07
 IDIUse=1 WtCom= 1.00D+00 WtEn= 0.00D+00
 Coeff-Com:  0.112D+00 0.888D+00
 Coeff:      0.112D+00 0.888D+00
 Gap=     0.088 Goal=     0.100 Shift=    0.012
 Gap=     0.189 Goal=     0.100 Shift=    0.000
 RMSDP=2.18D-06 MaxDP=2.79D-05 DE=-3.00D-08 OVMax= 1.81D-04

 Cycle  10  Pass 1  IDiag  1:
 E= -205.686194122358     Delta-E=        0.000000002490 Rises=F Damp=F
 DIIS: error= 1.55D-05 at cycle   3 NSaved=   3.
 NSaved= 3 IEnMin= 2 EnMin= -205.686194124848     IErMin= 2 ErrMin= 1.03D-05
 ErrMax= 1.55D-05 EMaxC= 1.00D+00 BMatC= 2.67D-08 BMatP= 1.34D-08
 IDIUse=1 WtCom= 1.00D+00 WtEn= 0.00D+00
 Coeff-Com:  0.614D-02 0.594D+00 0.400D+00
 Coeff:      0.614D-02 0.594D+00 0.400D+00
 Gap=     0.088 Goal=     0.100 Shift=    0.012
 Gap=     0.189 Goal=     0.100 Shift=    0.000
 RMSDP=1.24D-06 MaxDP=1.34D-05 DE= 2.49D-09 OVMax= 1.02D-04

 Cycle  11  Pass 1  IDiag  1:
 E= -205.686194128500     Delta-E=       -0.000000006143 Rises=F Damp=F
 DIIS: error= 2.98D-06 at cycle   4 NSaved=   4.
 NSaved= 4 IEnMin= 4 EnMin= -205.686194128500     IErMin= 4 ErrMin= 2.98D-06
 ErrMax= 2.98D-06 EMaxC= 1.00D+00 BMatC= 1.54D-09 BMatP= 1.34D-08
 IDIUse=1 WtCom= 1.00D+00 WtEn= 0.00D+00
 Coeff-Com: -0.121D-01 0.256D+00 0.209D+00 0.547D+00
 Coeff:     -0.121D-01 0.256D+00 0.209D+00 0.547D+00
 Gap=     0.088 Goal=     0.100 Shift=    0.012
 Gap=     0.189 Goal=     0.100 Shift=    0.000
 RMSDP=2.25D-07 MaxDP=5.43D-06 DE=-6.14D-09 OVMax= 6.43D-06

 Cycle  12  Pass 1  IDiag  1:
 E= -205.686194128822     Delta-E=       -0.000000000321 Rises=F Damp=F
 DIIS: error= 1.36D-06 at cycle   5 NSaved=   5.
 NSaved= 5 IEnMin= 5 EnMin= -205.686194128822     IErMin= 5 ErrMin= 1.36D-06
 ErrMax= 1.36D-06 EMaxC= 1.00D+00 BMatC= 8.23D-11 BMatP= 1.54D-09
 IDIUse=1 WtCom= 1.00D+00 WtEn= 0.00D+00
 Coeff-Com: -0.268D-02-0.236D-01-0.491D-02 0.612D-01 0.970D+00
 Coeff:     -0.268D-02-0.236D-01-0.491D-02 0.612D-01 0.970D+00
 Gap=     0.088 Goal=     0.100 Shift=    0.012
 Gap=     0.189 Goal=     0.100 Shift=    0.000
 RMSDP=1.08D-07 MaxDP=1.85D-06 DE=-3.21D-10 OVMax= 6.24D-06

 Cycle  13  Pass 1  IDiag  1:
 E= -205.686194128893     Delta-E=       -0.000000000072 Rises=F Damp=F
 DIIS: error= 1.65D-06 at cycle   6 NSaved=   6.
 NSaved= 6 IEnMin= 6 EnMin= -205.686194128893     IErMin= 5 ErrMin= 1.36D-06
 ErrMax= 1.65D-06 EMaxC= 1.00D+00 BMatC= 6.70D-11 BMatP= 8.23D-11
 IDIUse=1 WtCom= 1.00D+00 WtEn= 0.00D+00
 Coeff-Com:  0.894D-03-0.719D-01-0.535D-01-0.840D-01 0.559D+00 0.650D+00
 Coeff:      0.894D-03-0.719D-01-0.535D-01-0.840D-01 0.559D+00 0.650D+00
 Gap=     0.088 Goal=     0.100 Shift=    0.012
 Gap=     0.189 Goal=     0.100 Shift=    0.000
 RMSDP=7.47D-08 MaxDP=1.70D-06 DE=-7.17D-11 OVMax= 6.02D-06

 Cycle  14  Pass 1  IDiag  1:
 E= -205.686194128917     Delta-E=       -0.000000000024 Rises=F Damp=F
 DIIS: error= 1.28D-06 at cycle   7 NSaved=   7.
 NSaved= 7 IEnMin= 7 EnMin= -205.686194128917     IErMin= 7 ErrMin= 1.28D-06
 ErrMax= 1.28D-06 EMaxC= 1.00D+00 BMatC= 5.37D-11 BMatP= 6.70D-11
 IDIUse=1 WtCom= 1.00D+00 WtEn= 0.00D+00
 Coeff-Com:  0.294D-02-0.468D-01-0.470D-01-0.106D+00-0.145D+00 0.668D+00
 Coeff-Com:  0.674D+00
 Coeff:      0.294D-02-0.468D-01-0.470D-01-0.106D+00-0.145D+00 0.668D+00
 Coeff:      0.674D+00
 Gap=     0.088 Goal=     0.100 Shift=    0.012
 Gap=     0.189 Goal=     0.100 Shift=    0.000
 RMSDP=6.20D-08 MaxDP=1.20D-06 DE=-2.40D-11 OVMax= 4.34D-06

 Cycle  15  Pass 1  IDiag  1:
 E= -205.686194128938     Delta-E=       -0.000000000020 Rises=F Damp=F
 DIIS: error= 1.84D-07 at cycle   8 NSaved=   8.
 NSaved= 8 IEnMin= 8 EnMin= -205.686194128938     IErMin= 8 ErrMin= 1.84D-07
 ErrMax= 1.84D-07 EMaxC= 1.00D+00 BMatC= 9.07D-13 BMatP= 5.37D-11
 IDIUse=1 WtCom= 1.00D+00 WtEn= 0.00D+00
 Coeff-Com: -0.264D-03 0.107D-01 0.797D-02 0.166D-01-0.821D-01-0.990D-01
 Coeff-Com: -0.241D-01 0.117D+01
 Coeff:     -0.264D-03 0.107D-01 0.797D-02 0.166D-01-0.821D-01-0.990D-01
 Coeff:     -0.241D-01 0.117D+01
 Gap=     0.088 Goal=     0.100 Shift=    0.012
 Gap=     0.189 Goal=     0.100 Shift=    0.000
 RMSDP=1.99D-08 MaxDP=4.09D-07 DE=-2.03D-11 OVMax= 1.45D-06

 Cycle  16  Pass 1  IDiag  1:
 E= -205.686194128939     Delta-E=       -0.000000000001 Rises=F Damp=F
 DIIS: error= 4.28D-08 at cycle   9 NSaved=   9.
 NSaved= 9 IEnMin= 9 EnMin= -205.686194128939     IErMin= 9 ErrMin= 4.28D-08
 ErrMax= 4.28D-08 EMaxC= 1.00D+00 BMatC= 2.53D-13 BMatP= 9.07D-13
 IDIUse=1 WtCom= 1.00D+00 WtEn= 0.00D+00
 Coeff-Com: -0.277D-03 0.442D-02 0.702D-02 0.760D-02 0.141D-01-0.661D-01
 Coeff-Com: -0.665D-01-0.611D-02 0.111D+01
 Coeff:     -0.277D-03 0.442D-02 0.702D-02 0.760D-02 0.141D-01-0.661D-01
 Coeff:     -0.665D-01-0.611D-02 0.111D+01
 Gap=     0.088 Goal=     0.100 Shift=    0.012
 Gap=     0.189 Goal=     0.100 Shift=    0.000
 RMSDP=5.35D-09 MaxDP=1.05D-07 DE=-1.36D-12 OVMax= 3.51D-07

 SCF Done:  E(UB3LYP) =  -205.686194129     A.U. after   16 cycles
             Convg  =    0.5354D-08             -V/T =  2.0020
 <Sx>= 0.0000 <Sy>= 0.0000 <Sz>= 0.0000 <S**2>= 0.7861 S= 0.5179
 <L.S>= 0.000000000000E+00
 KE= 2.052776585872D+02 PE=-6.027505598227D+02 EE= 1.333740255751D+02
 Annihilation of the first spin contaminant:
 S**2 before annihilation     0.7861,   after     0.0154
 Leave Link  502 at Mon Jan 14 18:27:45 2013, MaxMem=  268435456 cpu:       5.7
 (Enter /Users/talipovmr/usr/local/g09/l508.exe)
 QCSCF skips out because SCF is already converged.
 Leave Link  508 at Mon Jan 14 18:27:45 2013, MaxMem=  268435456 cpu:       0.0
 (Enter /Users/talipovmr/usr/local/g09/l801.exe)
 Range of M.O.s used for correlation:     1    60
 NBasis=    60 NAE=    12 NBE=    12 NFC=     0 NFV=     0
 NROrb=     60 NOA=    12 NOB=    12 NVA=    48 NVB=    48

 **** Warning!!: The smallest alpha delta epsilon is  0.88068645D-01

 Leave Link  801 at Mon Jan 14 18:27:45 2013, MaxMem=  268435456 cpu:       0.1
 (Enter /Users/talipovmr/usr/local/g09/l1101.exe)
 Leave Link 1101 at Mon Jan 14 18:27:45 2013, MaxMem=  268435456 cpu:       0.1
 (Enter /Users/talipovmr/usr/local/g09/l1102.exe)
 Symmetrizing basis deriv contribution to polar:
 IMax=3 JMax=2 DiffMx= 0.00D+00
 Leave Link 1102 at Mon Jan 14 18:27:45 2013, MaxMem=  268435456 cpu:       0.1
 (Enter /Users/talipovmr/usr/local/g09/l1110.exe)
 Leave Link 1110 at Mon Jan 14 18:27:45 2013, MaxMem=  268435456 cpu:       0.1
 (Enter /Users/talipovmr/usr/local/g09/l1002.exe)
 Minotr:  UHF open shell wavefunction.
[...]
 Gap=     0.102 Goal=   None    Shift=    0.000
 Gap=     0.183 Goal=   None    Shift=    0.000
 RMSDP=1.99D-08 MaxDP=4.04D-07 DE=-7.05D-12 OVMax= 1.44D-06

 Cycle  15  Pass 1  IDiag  1:
 E= -205.687823349370     Delta-E=       -0.000000000002 Rises=F Damp=F
 DIIS: error= 4.32D-08 at cycle   9 NSaved=   9.
 NSaved= 9 IEnMin= 9 EnMin= -205.687823349370     IErMin= 9 ErrMin= 4.32D-08
 ErrMax= 4.32D-08 EMaxC= 1.00D+00 BMatC= 8.26D-14 BMatP= 1.20D-12
 IDIUse=1 WtCom= 1.00D+00 WtEn= 0.00D+00
 Coeff-Com: -0.187D-03 0.778D-03 0.398D-02 0.178D-01 0.605D-02-0.662D-01
 Coeff-Com: -0.908D-01 0.473D-01 0.108D+01
 Coeff:     -0.187D-03 0.778D-03 0.398D-02 0.178D-01 0.605D-02-0.662D-01
 Coeff:     -0.908D-01 0.473D-01 0.108D+01
 Gap=     0.102 Goal=   None    Shift=    0.000
 Gap=     0.183 Goal=   None    Shift=    0.000
 RMSDP=5.64D-09 MaxDP=1.14D-07 DE=-1.59D-12 OVMax= 4.00D-07

 SCF Done:  E(UB3LYP) =  -205.687823349     A.U. after   15 cycles
             Convg  =    0.5645D-08             -V/T =  2.0020
 <Sx>= 0.0000 <Sy>= 0.0000 <Sz>= 0.0000 <S**2>= 0.7748 S= 0.5123
 <L.S>= 0.000000000000E+00
 KE= 2.052723398267D+02 PE=-6.033267676690D+02 EE= 1.336319958922D+02
 Annihilation of the first spin contaminant:
 S**2 before annihilation     0.7748,   after     0.0165
 Leave Link  502 at Mon Jan 14 18:29:11 2013, MaxMem=  268435456 cpu:       5.6
 (Enter /Users/talipovmr/usr/local/g09/l508.exe)
 QCSCF skips out because SCF is already converged.
 Leave Link  508 at Mon Jan 14 18:29:11 2013, MaxMem=  268435456 cpu:       0.0
 (Enter /Users/talipovmr/usr/local/g09/l801.exe)
 Range of M.O.s used for correlation:     1    60
 NBasis=    60 NAE=    12 NBE=    12 NFC=     0 NFV=     0
 NROrb=     60 NOA=    12 NOB=    12 NVA=    48 NVB=    48
 Leave Link  801 at Mon Jan 14 18:29:11 2013, MaxMem=  268435456 cpu:       0.1
 (Enter /Users/talipovmr/usr/local/g09/l1101.exe)
 Leave Link 1101 at Mon Jan 14 18:29:11 2013, MaxMem=  268435456 cpu:       0.1
 (Enter /Users/talipovmr/usr/local/g09/l1102.exe)
 Symmetrizing basis deriv contribution to polar:
 IMax=3 JMax=2 DiffMx= 0.00D+00
 Leave Link 1102 at Mon Jan 14 18:29:11 2013, MaxMem=  268435456 cpu:       0.1
 (Enter /Users/talipovmr/usr/local/g09/l1110.exe)
 Leave Link 1110 at Mon Jan 14 18:29:11 2013, MaxMem=  268435456 cpu:       0.1
 (Enter /Users/talipovmr/usr/local/g09/l1002.exe)
 Minotr:  UHF open shell wavefunction.
 Leave Link 1002 at Mon Jan 14 18:29:12 2013, MaxMem=  268435456 cpu:       0.1
 (Enter /Users/talipovmr/usr/local/g09/l701.exe)
 Compute integral first derivatives.
 ... and contract with generalized density number  0.
 Leave Link  701 at Mon Jan 14 18:29:12 2013, MaxMem=  268435456 cpu:       0.3
 (Enter /Users/talipovmr/usr/local/g09/l702.exe)
 L702 exits ... SP integral derivatives will be done elsewhere.
 Leave Link  702 at Mon Jan 14 18:29:12 2013, MaxMem=  268435456 cpu:       0.1
 (Enter /Users/talipovmr/usr/local/g09/l703.exe)
 Compute integral first derivatives, UseDBF=F ICtDFT=           0.
 Integral derivatives from FoFDir, PRISM(SPDF).
 Calling FoFJK, ICntrl=      2147 FMM=F ISym2X=0 I1Cent= 0 IOpClX= 1 NMat=1 NMatS=1 NMatT=0.
 FoFCou: FMM=F IPFlag=           0 FMFlag=      100000 FMFlg1=         800
         NFxFlg=           0 DoJE=F BraDBF=F KetDBF=F FulRan=T
         Omega=  0.000000  0.000000  1.000000  0.000000  0.000000 ICntrl=    2147 IOpCl=  1
         NMat0=    1 NMatS0=    1 NMatT0=    0 NMatD0=    1 NMtDS0=    0 NMtDT0=    0
         I1Cent=           0 NGrid=           0.
 Symmetry not used in FoFCou.
 Leave Link  703 at Mon Jan 14 18:29:12 2013, MaxMem=  268435456 cpu:       1.3
 (Enter /Users/talipovmr/usr/local/g09/l716.exe)
 Dipole        =-2.59940727D-01 4.30521475D-01 4.14334110D-11
 Polarizability= 0.00000000D+00 0.00000000D+00 0.00000000D+00
                 0.00000000D+00 0.00000000D+00 0.00000000D+00
 -------------------------------------------------------------------
 Center     Atomic                   Forces (Hartrees/Bohr)
 Number     Number              X              Y              Z
 -------------------------------------------------------------------
      1        8           0.000553053   -0.004762194    0.000000000
      2        7           0.000062501    0.003454128    0.000000000
      3        8          -0.002914004   -0.000607283    0.000000000
      4        1           0.002298450    0.001915349    0.000000000
 -------------------------------------------------------------------
 Cartesian Forces:  Max     0.004762194 RMS     0.002096245
 Leave Link  716 at Mon Jan 14 18:29:12 2013, MaxMem=  268435456 cpu:       0.1
 (Enter /Users/talipovmr/usr/local/g09/l123.exe)
 IRC-IRC-IRC-IRC-IRC-IRC-IRC-IRC-IRC-IRC-IRC-IRC-IRC-IRC-IRC-IRC-IRC-IRC
 Pt 20 Step number   1 out of a maximum of  20
 Using modified Bulirsch-Stoer corrector interation.
   Using distance weighted interpolants to fit PES.
    Cycle     1 NS=     2
    Cycle     2 NS=     4 Truncation Error =  0.032306276
    Cycle     3 NS=     6 Truncation Error =  0.040856849
    Cycle     4 NS=     8 Truncation Error =  0.033120675
    Cycle     5 NS=    12 Truncation Error =  0.017016250
    Cycle     6 NS=    16 Truncation Error =  0.010684399
    Cycle     7 NS=    24 Truncation Error =  0.025106462
    Cycle     8 NS=    32 Truncation Error =  0.017836695
    Cycle     9 NS=    48 Truncation Error =  0.005090107
    Cycle    10 NS=    64 Truncation Error =  0.001258340
    Cycle    11 NS=    96 Truncation Error =  0.000259296
    Cycle    12 NS=   128 Truncation Error =  0.000037999
    Cycle    13 NS=   192 Truncation Error =  0.000003823
    Cycle    14 NS=   256 Truncation Error =  0.000000319
 BS completed in   14 cycles and     888 integration steps.
 SUMMARY OF CORRECTOR INTEGRATION:
   Original End Point Energy  =  -205.687823
   Corrected End Point Energy =  -205.687831
   Old End-Start Dist.        =     0.145498
   New End-Start Dist.        =     0.145461
   New End-Old End Dist.      =     0.006098
 CORRECTOR INTEGRATION CONVERGENCE:
   Recorrection delta-x convergence threshold:    0.010000
   Delta-x Convergence Met
 Point Number:  10          Path Number:   2
                    CURRENT STRUCTURE
                Cartesian Coordinates (Ang):                
 ---------------------------------------------------------------------
 Center     Atomic                     Coordinates (Angstroms)
 Number     Number                        X           Y           Z
 ---------------------------------------------------------------------
      1          8                    0.013199    0.856701    0.000000
      2          7                    1.108587    0.579302    0.000000
      3          8                   -0.878082   -1.257895    0.000000
      4          1                   -1.831960   -1.446011    0.000000
 ---------------------------------------------------------------------
   CHANGE IN THE REACTION COORDINATE =    0.14546
   NET REACTION COORDINATE UP TO THIS POINT =    1.45425
  # OF POINTS ALONG THE PATH =  20
  # OF STEPS =   1

 Maximum number of steps reached.
 Calculation of REVERSE path complete.
 Reaction path calculation complete.
 
 Energies reported relative to the TS energy of        -205.686107
 --------------------------------------------------------------------------
    Summary of reaction path following
 --------------------------------------------------------------------------
                        Energy   Rx Coord
   1                   -0.00172  -1.45425
   2                   -0.00144  -1.30879
   3                   -0.00117  -1.16333
   4                   -0.00092  -1.01787
   5                   -0.00069  -0.87241
   6                   -0.00049  -0.72696
   7                   -0.00032  -0.58150
   8                   -0.00019  -0.43607
   9                   -0.00008  -0.29066
  10                   -0.00002  -0.14513
  11                    0.00000   0.00000
  12                   -0.00002   0.14526
  13                   -0.00009   0.29067
  14                   -0.00021   0.43611
  15                   -0.00038   0.58156
  16                   -0.00060   0.72702
  17                   -0.00088   0.87247
  18                   -0.00121   1.01793
  19                   -0.00160   1.16337
  20                   -0.00205   1.30883
  21                   -0.00255   1.45425
 --------------------------------------------------------------------------
 
 Total number of points:                   20
 Total number of gradient calculations:    21
 Total number of Hessian calculations:      1
 IRC-IRC-IRC-IRC-IRC-IRC-IRC-IRC-IRC-IRC-IRC-IRC-IRC-IRC-IRC-IRC-IRC-IRC
 Leave Link  123 at Mon Jan 14 18:29:12 2013, MaxMem=  268435456 cpu:       0.0
 (Enter /Users/talipovmr/usr/local/g09/l202.exe)
                          Input orientation:                          
 ---------------------------------------------------------------------
 Center     Atomic      Atomic             Coordinates (Angstroms)
 Number     Number       Type             X           Y           Z
 ---------------------------------------------------------------------
      1          8           0        0.012925    0.856754    0.000000
      2          7           0        1.108868    0.579212    0.000000
      3          8           0       -0.877843   -1.257974    0.000000
      4          1           0       -1.834533   -1.446527    0.000000
 ---------------------------------------------------------------------
                    Distance matrix (angstroms):
                    1          2          3          4
     1  O    0.000000
     2  N    1.130539   0.000000
     3  O    2.294677   2.705970   0.000000
     4  H    2.952660   3.573125   0.975093   0.000000
 Symmetry turned off by external request.
 Stoichiometry    HNO2
 Framework group  CS[SG(HNO2)]
 Deg. of freedom     5
 Full point group                 CS      NOp   2
 Rotational constants (GHZ):     60.2523463      7.3876913      6.5808026
 Leave Link  202 at Mon Jan 14 18:29:13 2013, MaxMem=  268435456 cpu:       0.0
 (Enter /Users/talipovmr/usr/local/g09/l601.exe)
 Copying SCF densities to generalized density rwf, IOpCl= 1 IROHF=0.

 **********************************************************************

            Population analysis using the SCF density.

 **********************************************************************

 Alpha  occ. eigenvalues --  -19.29672 -19.09941 -14.47644  -1.29225  -0.90239
 Alpha  occ. eigenvalues --   -0.70663  -0.56593  -0.54306  -0.51105  -0.40127
 Alpha  occ. eigenvalues --   -0.26790  -0.22809
 Alpha virt. eigenvalues --   -0.12610  -0.12073   0.06527   0.30932   0.39845
 Alpha virt. eigenvalues --    0.52323   0.53017   0.57604   0.59953   0.71060
 Alpha virt. eigenvalues --    0.73449   0.77238   0.82998   0.88931   0.98689
 Alpha virt. eigenvalues --    1.13435   1.25404   1.36604   1.48859   1.79999
 Alpha virt. eigenvalues --    1.80442   1.80826   1.83195   1.95892   2.39384
 Alpha virt. eigenvalues --    2.51508   2.72876   2.75091   2.87598   2.89620
 Alpha virt. eigenvalues --    3.14618   3.15124   3.19347   3.20022   3.52366
 Alpha virt. eigenvalues --    3.67294   3.70797   3.77892   4.14397   4.72075
 Alpha virt. eigenvalues --    4.79077   4.79206   4.85769   5.38775   5.52362
 Alpha virt. eigenvalues --   35.31737  49.74836  49.78684
  Beta  occ. eigenvalues --  -19.29009 -19.12084 -14.46237  -1.27651  -0.95944
  Beta  occ. eigenvalues --   -0.67864  -0.53575  -0.51461  -0.49002  -0.41803
  Beta  occ. eigenvalues --   -0.34423  -0.28989
  Beta virt. eigenvalues --   -0.10721  -0.06905   0.05939   0.31907   0.39416
  Beta virt. eigenvalues --    0.52995   0.56298   0.59072   0.60642   0.69840
  Beta virt. eigenvalues --    0.73278   0.76817   0.82319   0.86485   0.97639
  Beta virt. eigenvalues --    1.11876   1.25469   1.36756   1.48136   1.80479
  Beta virt. eigenvalues --    1.84296   1.84971   1.87286   1.95137   2.39267
  Beta virt. eigenvalues --    2.53221   2.75172   2.76802   2.80682   2.82587
  Beta virt. eigenvalues --    3.08802   3.13494   3.19929   3.23815   3.53346
  Beta virt. eigenvalues --    3.68301   3.73965   3.77594   4.15442   4.72066
  Beta virt. eigenvalues --    4.75905   4.77707   4.82578   5.36756   5.53301
  Beta virt. eigenvalues --   35.33160  49.74080  49.77906
          Condensed to atoms (all electrons):
              1          2          3          4
     1  O    7.726920   0.240905   0.007990   0.003277
     2  N    0.240905   6.629112  -0.008364  -0.000339
     3  O    0.007990  -0.008364   8.131876   0.255851
     4  H    0.003277  -0.000339   0.255851   0.513453
 Mulliken atomic charges:
              1
     1  O    0.020908
     2  N    0.138686
     3  O   -0.387353
     4  H    0.227759
 Sum of Mulliken atomic charges =   0.00000
 Mulliken charges with hydrogens summed into heavy atoms:
              1
     1  O    0.020908
     2  N    0.138686
     3  O   -0.159594
 Sum of Mulliken charges with hydrogens summed into heavy atoms =   0.00000
          Atomic-Atomic Spin Densities.
              1          2          3          4
     1  O    0.378164  -0.210474   0.037281   0.000060
     2  N   -0.210474   0.831067  -0.006136  -0.000352
     3  O    0.037281  -0.006136  -0.870785  -0.001562
     4  H    0.000060  -0.000352  -0.001562   0.023920
 Mulliken atomic spin densities:
              1
     1  O    0.205032
     2  N    0.614105
     3  O   -0.841202
     4  H    0.022065
 Sum of Mulliken atomic spin densities =   0.00000
 APT atomic charges:
              1
     1  O    0.010850
     2  N    0.138672
     3  O   -0.715192
     4  H    0.565670
 Sum of APT charges=   0.00000
 APT Atomic charges with hydrogens summed into heavy atoms:
              1
     1  O    0.010850
     2  N    0.138672
     3  O   -0.149522
     4  H    0.000000
 Sum of APT charges=   0.00000
 Electronic spatial extent (au):  <R**2>=            180.0970
 Charge=              0.0000 electrons
 Dipole moment (field-independent basis, Debye):
    X=             -0.6607    Y=              1.0943    Z=              0.0000  Tot=              1.2783
 Quadrupole moment (field-independent basis, Debye-Ang):
   XX=            -12.8634   YY=            -15.9962   ZZ=            -15.9083
   XY=              2.0933   XZ=              0.0000   YZ=              0.0000
 Traceless Quadrupole moment (field-independent basis, Debye-Ang):
   XX=              2.0593   YY=             -1.0736   ZZ=             -0.9856
   XY=              2.0933   XZ=              0.0000   YZ=              0.0000
 Octapole moment (field-independent basis, Debye-Ang**2):
  XXX=            -10.7530  YYY=              0.1360  ZZZ=              0.0000  XYY=             -3.3960
  XXY=             -5.6373  XXZ=              0.0000  XZZ=              1.1111  YZZ=              1.9373
  YYZ=              0.0000  XYZ=              0.0000
 Hexadecapole moment (field-independent basis, Debye-Ang**3):
 XXXX=            -71.2536 YYYY=            -98.1823 ZZZZ=            -11.5316 XXXY=            -20.4182
 XXXZ=              0.0000 YYYX=            -26.3114 YYYZ=              0.0000 ZZZX=              0.0000
 ZZZY=              0.0000 XXYY=            -22.9384 XXZZ=            -16.2841 YYZZ=            -19.6616
 XXYZ=              0.0000 YYXZ=              0.0000 ZZXY=            -11.2149
 N-N= 5.873460860067D+01 E-N=-9.050730477550D+02  KE= 3.079911888651D+02
  Exact polarizability:   0.000   0.000   0.000   0.000   0.000   0.000
 Approx polarizability:  53.713  27.379  48.831   0.000   0.000   9.961
                          Isotropic Fermi Contact Couplings
        Atom                 a.u.       MegaHertz       Gauss      10(-4) cm-1
     1  O(17)             -0.02543       7.70798       2.75040       2.57110
     2  N(14)              0.03016       4.87268       1.73869       1.62535
     3  O(17)             -0.05297      16.05547       5.72899       5.35553
     4  H(1)               0.01213      27.10959       9.67338       9.04279
 --------------------------------------------------------
       Center         ----  Spin Dipole Couplings  ----
                      3XX-RR        3YY-RR        3ZZ-RR
 --------------------------------------------------------
     1   Atom       -0.514490      1.229005     -0.714515
     2   Atom       -0.751833      1.563669     -0.811836
     3   Atom        1.477223     -3.124024      1.646801
     4   Atom       -0.133727      0.028118      0.105609
 --------------------------------------------------------
                        XY            XZ            YZ
 --------------------------------------------------------
     1   Atom        0.336786      0.000000      0.000000
     2   Atom        0.566984      0.000000      0.000000
     3   Atom        0.840388      0.000000      0.000000
     4   Atom       -0.027651      0.000000      0.000000
 --------------------------------------------------------


 ---------------------------------------------------------------------------------
              Anisotropic Spin Dipole Couplings in Principal Axis System
 ---------------------------------------------------------------------------------

       Atom             a.u.   MegaHertz   Gauss  10(-4) cm-1        Axes

              Baa    -0.7145    51.702    18.448    17.246  0.0000  0.0000  1.0000
     1 O(17)  Bbb    -0.5773    41.772    14.905    13.934  0.9831 -0.1833  0.0000
              Bcc     1.2918   -93.474   -33.354   -31.179  0.1833  0.9831  0.0000
 
              Baa    -0.8832   -34.064   -12.155   -11.362  0.9742 -0.2257  0.0000
     2 N(14)  Bbb    -0.8118   -31.311   -11.172   -10.444  0.0000  0.0000  1.0000
              Bcc     1.6950    65.374    23.327    21.807  0.2257  0.9742  0.0000
 
              Baa    -3.2727   236.811    84.500    78.992 -0.1742  0.9847  0.0000
     3 O(17)  Bbb     1.6259  -117.650   -41.980   -39.244  0.9847  0.1742  0.0000
              Bcc     1.6468  -119.161   -42.520   -39.748  0.0000  0.0000  1.0000
 
              Baa    -0.1383   -73.802   -26.334   -24.618  0.9865  0.1639  0.0000
     4 H(1)   Bbb     0.0327    17.454     6.228     5.822 -0.1639  0.9865  0.0000
              Bcc     0.1056    56.348    20.106    18.796  0.0000  0.0000  1.0000
 

 ---------------------------------------------------------------------------------

 No NMR shielding tensors so no spin-rotation constants.
 Leave Link  601 at Mon Jan 14 18:29:13 2013, MaxMem=  268435456 cpu:       0.5
 (Enter /Users/talipovmr/usr/local/g09/l716.exe)
 Dipole        =-2.59940727D-01 4.30521475D-01 4.14334110D-11
 Polarizability= 0.00000000D+00 0.00000000D+00 0.00000000D+00
                 0.00000000D+00 0.00000000D+00 0.00000000D+00
 -------------------------------------------------------------------
 Center     Atomic                   Forces (Hartrees/Bohr)
 Number     Number              X              Y              Z
 -------------------------------------------------------------------
      1        8           0.000553053   -0.004762194    0.000000000
      2        7           0.000062501    0.003454128    0.000000000
      3        8          -0.002914004   -0.000607283    0.000000000
      4        1           0.002298450    0.001915349    0.000000000
 -------------------------------------------------------------------
 Cartesian Forces:  Max     0.004762194 RMS     0.002096245
 Leave Link  716 at Mon Jan 14 18:29:13 2013, MaxMem=  268435456 cpu:       0.1
 (Enter /Users/talipovmr/usr/local/g09/l9999.exe)

 This type of calculation cannot be archived.


 KNOWING HOW CONTENTED, FREE, AND JOYFUL IS LIFE IN
 THE REALMS OF SCIENCE, ONE FERVENTLY WISHES THAT
 MANY WOULD ENTER HER PORTALS.
   --  DMITRI IVANOVICH MENDELEEV
 "FIRST PRINCIPLES OF CHEMISTRY", LONGMANS, GREEN,
 AND CO.  LONDON, 1891
 Job cpu time:  0 days  0 hours  3 minutes 36.8 seconds.
 File lengths (MBytes):  RWF=      7 Int=      0 D2E=      0 Chk=      2 Scr=      1
 Normal termination of Gaussian 09 at Mon Jan 14 18:29:13 2013.
