                                                                        
FOpt      UB3LYP                                                      6-311G(2d,d,p)      
Number of atoms                            I                4
Info1-9                                    I   N=           9
           7           6           0           0           0         110
           2          18        -502
Charge                                     I                0
Multiplicity                               I                1
Number of electrons                        I               24
Number of alpha electrons                  I               12
Number of beta electrons                   I               12
Number of basis functions                  I               60
Number of independent functions            I               60
Number of point charges in /Mol/           I                0
Number of translation vectors              I                0
Atomic numbers                             I   N=           4
           8           7           8           1
Nuclear charges                            R   N=           4
  8.00000000E+00  7.00000000E+00  8.00000000E+00  1.00000000E+00
Current cartesian coordinates              R   N=          12
  2.44247338E-02  1.61902980E+00  6.17445657E-13  2.09545620E+00  1.09455288E+00
  9.18114205E-12 -1.65888338E+00 -2.37722696E+00 -6.05222551E-12 -3.46676428E+00
 -2.73353992E+00  9.52477456E-11
Force Field                                I                0
Int Atom Types                             I   N=           4
           0           0           0           0
MM charges                                 R   N=           4
  0.00000000E+00  0.00000000E+00  0.00000000E+00  0.00000000E+00
Integer atomic weights                     I   N=           4
          16          14          16           1
Real atomic weights                        R   N=           4
  1.59949146E+01  1.40030740E+01  1.59949146E+01  1.00782504E+00
Atom fragment info                         I   N=           4
           0           0           0           0
Atom residue num                           I   N=           4
           0           0           0           0
Nuclear spins                              I   N=           4
           0           2           0           1
Nuclear ZEff                               R   N=           4
 -5.60000000E+00 -4.55000000E+00 -5.60000000E+00 -1.00000000E+00
Nuclear QMom                               R   N=           4
  0.00000000E+00  2.04400000E+00  0.00000000E+00  0.00000000E+00
Nuclear GFac                               R   N=           4
  0.00000000E+00  4.03761000E-01  0.00000000E+00  2.79284600E+00
MicOpt                                     I   N=           4
          -1          -1          -1          -1
Number of contracted shells                I               19
Number of primitive shells                 I               42
Pure/Cartesian d shells                    I                0
Pure/Cartesian f shells                    I                0
Highest angular momentum                   I                2
Largest degree of contraction              I                6
Shell types                                I   N=          19
           0          -1          -1          -1          -2           0
          -1          -1          -1          -2           0          -1
          -1          -1          -2           0           0           0
           1
Number of primitives per shell             I   N=          19
           6           3           1           1           1           6
           3           1           1           1           6           3
           1           1           1           3           1           1
           1
Shell to atom map                          I   N=          19
           1           1           1           1           1           2
           2           2           2           2           3           3
           3           3           3           4           4           4
           4
Primitive exponents                        R   N=          42
  8.58850000E+03  1.29723000E+03  2.99296000E+02  8.73771000E+01  2.56789000E+01
  3.74004000E+00  4.21175000E+01  9.62837000E+00  2.85332000E+00  9.05661000E-01
  2.55611000E-01  1.29200000E+00  6.29348000E+03  9.49044000E+02  2.18776000E+02
  6.36916000E+01  1.88282000E+01  2.72023000E+00  3.06331000E+01  7.02614000E+00
  2.11205000E+00  6.84009000E-01  2.00878000E-01  9.13000000E-01  8.58850000E+03
  1.29723000E+03  2.99296000E+02  8.73771000E+01  2.56789000E+01  3.74004000E+00
  4.21175000E+01  9.62837000E+00  2.85332000E+00  9.05661000E-01  2.55611000E-01
  1.29200000E+00  3.38650000E+01  5.09479000E+00  1.15879000E+00  3.25840000E-01
  1.02741000E-01  7.50000000E-01
Contraction coefficients                   R   N=          42
  1.89515008E-03  1.43859006E-02  7.07320031E-02  2.40001011E-01  5.94797026E-01
  2.80802012E-01  1.13889012E-01  9.20811101E-01 -3.27447036E-03  1.00000000E+00
  1.00000000E+00  1.00000000E+00  1.96978815E-03  1.49612859E-02  7.35005308E-02
  2.48936766E-01  6.02459433E-01  2.56201759E-01  1.11906080E-01  9.21666655E-01
 -2.56919183E-03  1.00000000E+00  1.00000000E+00  1.00000000E+00  1.89515008E-03
  1.43859006E-02  7.07320031E-02  2.40001011E-01  5.94797026E-01  2.80802012E-01
  1.13889012E-01  9.20811101E-01 -3.27447036E-03  1.00000000E+00  1.00000000E+00
  1.00000000E+00  2.54938145E-02  1.90373109E-01  8.52161486E-01  1.00000000E+00
  1.00000000E+00  1.00000000E+00
P(S=P) Contraction coefficients            R   N=          42
  0.00000000E+00  0.00000000E+00  0.00000000E+00  0.00000000E+00  0.00000000E+00
  0.00000000E+00  3.65113974E-02  2.37152983E-01  8.19701941E-01  1.00000000E+00
  1.00000000E+00  0.00000000E+00  0.00000000E+00  0.00000000E+00  0.00000000E+00
  0.00000000E+00  0.00000000E+00  0.00000000E+00  3.83119186E-02  2.37403116E-01
  8.17592398E-01  1.00000000E+00  1.00000000E+00  0.00000000E+00  0.00000000E+00
  0.00000000E+00  0.00000000E+00  0.00000000E+00  0.00000000E+00  0.00000000E+00
  3.65113974E-02  2.37152983E-01  8.19701941E-01  1.00000000E+00  1.00000000E+00
  0.00000000E+00  0.00000000E+00  0.00000000E+00  0.00000000E+00  0.00000000E+00
  0.00000000E+00  0.00000000E+00
Coordinates of each shell                  R   N=          57
  2.44247338E-02  1.61902980E+00  6.17445657E-13  2.44247338E-02  1.61902980E+00
  6.17445657E-13  2.44247338E-02  1.61902980E+00  6.17445657E-13  2.44247338E-02
  1.61902980E+00  6.17445657E-13  2.44247338E-02  1.61902980E+00  6.17445657E-13
  2.09545620E+00  1.09455288E+00  9.18114205E-12  2.09545620E+00  1.09455288E+00
  9.18114205E-12  2.09545620E+00  1.09455288E+00  9.18114205E-12  2.09545620E+00
  1.09455288E+00  9.18114205E-12  2.09545620E+00  1.09455288E+00  9.18114205E-12
 -1.65888338E+00 -2.37722696E+00 -6.05222551E-12 -1.65888338E+00 -2.37722696E+00
 -6.05222551E-12 -1.65888338E+00 -2.37722696E+00 -6.05222551E-12 -1.65888338E+00
 -2.37722696E+00 -6.05222551E-12 -1.65888338E+00 -2.37722696E+00 -6.05222551E-12
 -3.46676428E+00 -2.73353992E+00  9.52477456E-11 -3.46676428E+00 -2.73353992E+00
  9.52477456E-11 -3.46676428E+00 -2.73353992E+00  9.52477456E-11 -3.46676428E+00
 -2.73353992E+00  9.52477456E-11
Constraint Structure                       R   N=          12
  1.78629131E-01  1.94955553E+00  2.10250994E-16  2.11790458E+00  1.05942373E+00
  5.09906243E-16 -1.51113740E+00 -2.25823611E+00 -4.98047064E-16 -2.91856451E+00
 -3.43997665E+00 -8.79539145E-16
Num ILSW                                   I              100
ILSW                                       I   N=         100
           1           0           0           0           2           0
           0           0           0           0         402          -1
           0           0           0           0           0           0
           0           0           0           0           0           1
           0           1           0           0           0           0
           0           0      100000           0          -1           0
           0           0           0           0           0           0
           0           0           0           1           0           0
           0           0           1           0           0           0
           0           0           4          40           0           0
           0           0           5           0           0           0
           0           0           0           0           0           0
           0           0           0           0           0           0
           0           0           0           0           0           0
           0           0           0           0           0           0
           0           0           0           0           0           0
           0           0           0           0
Num RLSW                                   I               40
RLSW                                       R   N=          40
  8.00000000E-01  7.20000000E-01  1.00000000E+00  8.10000000E-01  2.00000000E-01
  0.00000000E+00  0.00000000E+00  1.00000000E+00  0.00000000E+00  0.00000000E+00
  0.00000000E+00  0.00000000E+00  1.00000000E+00  0.00000000E+00  0.00000000E+00
  0.00000000E+00  0.00000000E+00  1.00000000E+00  0.00000000E+00  0.00000000E+00
  0.00000000E+00  0.00000000E+00  1.00000000E+00  0.00000000E+00  0.00000000E+00
  0.00000000E+00  0.00000000E+00  1.00000000E+00  0.00000000E+00  0.00000000E+00
  0.00000000E+00  0.00000000E+00  0.00000000E+00  0.00000000E+00  0.00000000E+00
  0.00000000E+00  0.00000000E+00  0.00000000E+00  1.00000000E+00  1.00000000E+00
MxBond                                     I                3
NBond                                      I   N=           4
           2           2           3           1
IBond                                      I   N=          12
           2           3           0           1           3           0
           1           2           4           3           0           0
RBond                                      R   N=          12
  3.00000000E+00  1.00000000E-01  0.00000000E+00  3.00000000E+00  1.00000000E-01
  0.00000000E+00  1.00000000E-01  1.00000000E-01  1.00000000E+00  1.00000000E+00
  0.00000000E+00  0.00000000E+00
Virial Ratio                               R      2.002024059953832E+00
SCF Energy                                 R     -2.056878233493699E+02
Total Energy                               R     -2.056878233493699E+02
S**2                                       R      7.747787175190357E-01
S**2 after annihilation                    R      1.648637075418951E-02
RMS Force                                  R      2.096244987510209E-03
RMS Density                                R      5.644675732990570E-09
External E-field                           R   N=          35
  0.00000000E+00  0.00000000E+00  0.00000000E+00  0.00000000E+00  0.00000000E+00
  0.00000000E+00  0.00000000E+00  0.00000000E+00  0.00000000E+00  0.00000000E+00
  0.00000000E+00  0.00000000E+00  0.00000000E+00  0.00000000E+00  0.00000000E+00
  0.00000000E+00  0.00000000E+00  0.00000000E+00  0.00000000E+00  0.00000000E+00
  0.00000000E+00  0.00000000E+00  0.00000000E+00  0.00000000E+00  0.00000000E+00
  0.00000000E+00  0.00000000E+00  0.00000000E+00  0.00000000E+00  0.00000000E+00
  0.00000000E+00  0.00000000E+00  0.00000000E+00  0.00000000E+00  0.00000000E+00
IOpCl                                      I                1
IROHF                                      I                0
Alpha Orbital Energies                     R   N=          60
 -1.92967216E+01 -1.90994103E+01 -1.44764429E+01 -1.29225140E+00 -9.02389042E-01
 -7.06629783E-01 -5.65933215E-01 -5.43064554E-01 -5.11053922E-01 -4.01270634E-01
 -2.67896252E-01 -2.28085728E-01 -1.26096325E-01 -1.20731186E-01  6.52725398E-02
  3.09319130E-01  3.98450067E-01  5.23234783E-01  5.30171978E-01  5.76035988E-01
  5.99532886E-01  7.10597328E-01  7.34490268E-01  7.72378673E-01  8.29981892E-01
  8.89308115E-01  9.86886205E-01  1.13434661E+00  1.25403512E+00  1.36603670E+00
  1.48858648E+00  1.79999254E+00  1.80442428E+00  1.80826318E+00  1.83194851E+00
  1.95891664E+00  2.39384202E+00  2.51507548E+00  2.72876098E+00  2.75091138E+00
  2.87598180E+00  2.89619862E+00  3.14618151E+00  3.15124406E+00  3.19347014E+00
  3.20021512E+00  3.52366329E+00  3.67293556E+00  3.70796697E+00  3.77891580E+00
  4.14397486E+00  4.72075275E+00  4.79076780E+00  4.79205669E+00  4.85768692E+00
  5.38775331E+00  5.52361563E+00  3.53173733E+01  4.97483631E+01  4.97868365E+01
Beta Orbital Energies                      R   N=          60
 -1.92900940E+01 -1.91208362E+01 -1.44623744E+01 -1.27651323E+00 -9.59443089E-01
 -6.78642263E-01 -5.35751437E-01 -5.14611494E-01 -4.90020185E-01 -4.18026735E-01
 -3.44226522E-01 -2.89887447E-01 -1.07213186E-01 -6.90457791E-02  5.93931035E-02
  3.19067073E-01  3.94161022E-01  5.29947550E-01  5.62975682E-01  5.90716950E-01
  6.06422473E-01  6.98404875E-01  7.32778987E-01  7.68166329E-01  8.23191412E-01
  8.64853069E-01  9.76392635E-01  1.11875775E+00  1.25468530E+00  1.36756497E+00
  1.48136030E+00  1.80478959E+00  1.84295863E+00  1.84970871E+00  1.87286197E+00
  1.95136804E+00  2.39266543E+00  2.53221067E+00  2.75172380E+00  2.76802079E+00
  2.80682279E+00  2.82587321E+00  3.08802353E+00  3.13493721E+00  3.19928839E+00
  3.23814803E+00  3.53345979E+00  3.68300650E+00  3.73964816E+00  3.77593920E+00
  4.15441844E+00  4.72066388E+00  4.75905194E+00  4.77706981E+00  4.82578086E+00
  5.36755813E+00  5.53300552E+00  3.53315998E+01  4.97407951E+01  4.97790564E+01
Alpha MO coefficients                      R   N=        3600
  5.51170373E-01  4.69879424E-01  1.19686125E-03 -2.95865139E-04  3.74171947E-15
  1.31897782E-02  1.21191180E-03 -4.23694110E-04  8.28819444E-15 -7.71938809E-03
 -2.17838643E-03  8.65007459E-04 -6.05010937E-14 -3.46145687E-04 -1.66739106E-14
  3.83797144E-15  4.09601612E-04 -2.20989058E-04 -4.69288074E-06  2.63325793E-04
 -4.12689646E-04  1.25839541E-04 -8.06857923E-15 -6.59354550E-04  1.44066753E-03
 -4.33468792E-04  6.26536010E-15  3.78522211E-03 -2.39244598E-03  6.04443474E-04
  5.62056315E-14  5.68801918E-04 -5.62131844E-14  1.45018126E-14 -8.18260953E-04
  4.69272724E-04  8.89302919E-07  2.14089179E-05  2.73308169E-05  5.16617751E-05
 -1.56683417E-15 -1.67487139E-04 -1.23585074E-04 -2.01541999E-04  4.24138094E-15
  3.28219117E-04  1.36191671E-04  4.78790138E-04  1.55934705E-15 -3.74942929E-05
 -2.99445201E-15  1.15134049E-15 -1.62368489E-05  2.03737068E-05  3.26951220E-05
 -1.30868395E-04  1.10671642E-04 -5.17244894E-05 -1.15083184E-04  5.82026008E-16
  1.10204862E-06  2.13013099E-05 -2.43671349E-05 -4.16359126E-05 -5.38187205E-16
 -1.63999514E-04  8.45035497E-05  1.65448532E-04  1.50378916E-15  2.84315140E-05
 -2.24787279E-04 -3.98791385E-04 -3.88183556E-15 -4.21330380E-05  2.61367242E-16
  8.04135098E-16 -2.45743375E-05 -4.86142935E-07 -1.90987633E-06  2.94387762E-05
 -3.25274081E-05 -3.99051651E-05 -4.64954167E-16 -1.92368341E-04  1.34439268E-04
  1.39677836E-04  7.88467338E-16  3.58045584E-04 -2.76715391E-04 -4.18522281E-05
 -2.33387236E-16 -2.84470865E-05 -1.21803049E-16 -2.16895399E-16 -2.13460553E-06
 -2.88892550E-05  5.51603359E-01  4.69909690E-01 -1.01579830E-03 -1.75151908E-04
  5.70779432E-14  1.12418396E-02 -4.43426430E-04 -1.83209632E-06  3.16374915E-14
 -3.32432871E-03 -2.54684948E-04 -2.94947375E-04  4.97728625E-15 -4.13256290E-05
 -4.59977044E-14 -9.63962050E-15  5.66646171E-04  2.15410464E-04  1.47876342E-05
 -1.15856804E-03  1.04575851E-03 -1.15986228E-03 -1.71652882E-04  6.38883880E-14
 -6.76949222E-05  1.11380152E-04  6.17444845E-04 -1.23100537E-04 -4.00928012E-15
 -5.71909575E-04 -2.24717017E-03  4.35835580E-04  2.47261048E-14 -1.35499383E-03
 -6.99906354E-04  4.59081863E-04 -1.11520007E-13  7.45846612E-04 -3.96389360E-14
  1.03375352E-14 -1.05337658E-03  5.79423954E-04  5.57026552E-01  4.66298855E-01
 -1.68310351E-03  4.88361459E-04 -2.71195599E-15  1.34999430E-02 -1.88650289E-03
  3.48346349E-04 -1.44150624E-14 -2.79232982E-03  5.63752634E-06  1.07885802E-04
  6.28661858E-14 -8.80013167E-04 -1.33188916E-14  3.59261415E-15  9.90555277E-04
 -5.32999292E-04  3.43570915E-06  2.51090633E-05  5.67699883E-05  3.75766790E-05
  1.09715672E-15 -1.52940321E-04 -1.99321884E-04 -1.62867772E-04 -4.97564003E-15
 -6.33401736E-05  7.20808519E-04  4.33890871E-04 -6.67237240E-15  1.27605690E-05
  4.40020976E-15  2.52623499E-15 -5.46210727E-05 -4.28819441E-07 -2.02260265E-05
  5.07842770E-04  7.22001266E-05  1.10563182E-04 -4.54815575E-05 -1.39252336E-14
 -1.00062998E-01 -1.59946323E-01  9.19467723E-02 -2.25465611E-02  2.94839846E-13
  4.71034968E-01  1.29678174E-01 -3.03112597E-02  8.15382276E-14  2.69215048E-01
  4.88881563E-02 -1.33422915E-02  2.59692663E-13 -9.26206030E-03 -8.05442541E-14
  2.12349074E-14  1.46110050E-02 -7.88807178E-03 -7.35073314E-02 -1.14738169E-01
 -9.91679209E-02  2.55195375E-02 -3.23522989E-13  3.29810042E-01 -1.36839469E-01
  3.61477242E-02  1.97312969E-13  7.50817397E-02 -1.30783544E-03  1.33192772E-03
 -2.10955696E-13 -1.36177498E-02 -1.78684160E-15  8.00472097E-14  1.97739999E-02
 -1.13173868E-02 -1.71054985E-03 -2.77519782E-03  4.11363341E-04  1.11776144E-03
  1.40921828E-14  8.66405676E-03  1.77832054E-03  3.08010869E-03  4.37649424E-14
  3.66005263E-03 -3.51023476E-03 -3.02093100E-03  5.86281182E-15 -1.13104943E-04
 -1.37651728E-14 -4.62508420E-15  1.15983100E-04  1.69932668E-04  5.99649341E-04
 -1.43026230E-03 -6.43640021E-04 -4.42921945E-05  6.32600839E-04  4.99086287E-14
 -2.98121675E-04 -4.78513597E-04 -1.15098054E-02 -7.05681514E-03 -4.67014189E-16
  7.10249549E-04 -1.67431181E-02 -1.15067465E-02 -7.70550858E-15  5.83133286E-03
 -9.59900606E-03 -6.72309607E-03  5.17499753E-14  1.23951887E-04  2.67382740E-15
 -5.50021074E-15 -1.91957561E-03  6.31711212E-04  4.21340483E-03  6.72072897E-03
  3.53220005E-03 -4.87575252E-03  2.63910249E-14 -2.13733034E-02  4.51631851E-03
 -7.38161904E-03  2.47732645E-14 -5.36572679E-03 -1.19064760E-03 -3.58929256E-03
  2.82952520E-14  1.14033556E-04 -5.94262481E-15 -5.75675689E-15 -2.34914771E-04
  1.80608934E-03 -1.17667232E-01 -1.88238554E-01 -5.28447512E-02 -9.63471018E-03
  3.11558812E-12  5.48606177E-01 -8.01209537E-02 -1.50484518E-02  4.69910559E-12
  4.05833259E-01 -2.38543415E-02 -4.86213896E-04  1.13714370E-12 -3.39562600E-03
 -1.14560190E-12 -1.92187379E-13  1.33042534E-02  5.53302445E-03  1.21111538E-01
  1.12050871E-01  1.23956905E-02  2.89088260E-02  5.51677220E-03 -1.52999439E-12
 -7.99240837E-02 -1.29936583E-01 -1.51162219E-01  4.23643115E-02 -3.31851041E-13
  3.96125932E-01 -2.08055819E-01  5.79407871E-02 -4.51122731E-14  4.52737542E-01
 -1.06237491E-01  3.55702514E-02 -1.82029493E-13  7.60144755E-03  5.46710886E-14
 -3.10966078E-14 -1.35128226E-02  7.08447189E-03  8.87629843E-02  1.42524580E-01
 -1.08785016E-02  2.64441830E-03 -8.89367320E-14 -4.37789840E-01 -3.39382835E-03
 -3.36509779E-04  1.03964838E-12 -3.53057290E-01 -6.77501736E-03 -1.67854591E-03
 -1.30566270E-12  2.47363661E-04  5.64585938E-14  1.69871558E-15  4.08210358E-03
 -2.02570900E-03  4.83316390E-03  7.82672947E-03  5.67097408E-03  7.73505288E-03
 -2.88660485E-13 -2.44410172E-02  7.47938845E-03  1.01122789E-02 -4.20157534E-13
 -1.37541245E-02  4.39614884E-03  1.30962811E-02 -1.27652886E-13 -1.05643421E-04
  6.88187843E-14  3.26839116E-14 -1.68275816E-03 -3.65438002E-04 -8.68440178E-03
 -1.19653680E-02  3.70386980E-03 -1.97605145E-03 -1.77224636E-04  1.25445677E-13
  5.78959660E-05  7.53467862E-05  5.48776973E-02  2.33806745E-01 -1.53053234E-12
 -4.91573410E-04  7.98672845E-02  3.42783666E-01 -2.32412920E-12 -3.46940460E-03
  5.83938547E-02  2.49750799E-01 -1.81980553E-12  6.67011485E-05 -2.31545207E-13
  4.13764948E-14  1.20352387E-02  2.38171726E-02 -8.49115676E-04 -1.27327177E-03
  4.91820413E-02  1.77652623E-01 -1.05284948E-12  1.06098789E-03  7.33732500E-02
  2.67151797E-01 -1.91920569E-12  1.67313167E-02  3.84010146E-02  1.60544843E-01
 -8.63005833E-13 -3.39577302E-04  3.91982891E-13 -2.89684122E-14 -1.94805165E-02
 -3.40606673E-02 -1.69120565E-03 -2.72857739E-03 -3.58723325E-02 -2.06316520E-02
  1.21084907E-12  9.21101651E-03 -5.11473050E-02 -3.13729590E-02  1.66117500E-12
 -7.49190372E-03 -3.14401146E-02 -1.80504309E-02  9.65712455E-13 -7.66718739E-04
 -2.48181941E-13 -7.62554078E-14  2.94699316E-03  4.85246632E-04  3.07380596E-02
  4.03770591E-02  6.82610418E-03  5.71950133E-03 -8.60895389E-04 -4.48418968E-13
  3.47042055E-14  1.18203850E-13 -2.92371698E-13  1.62842909E-12  2.43818532E-01
 -2.04424127E-12 -1.39511011E-13  2.20103403E-12  3.61398876E-01  1.56291818E-11
  7.30822278E-12 -6.77866134E-14  2.73874868E-01 -1.71592094E-13  2.94554994E-02
 -6.69099063E-03  3.49958823E-13 -8.40748524E-14  4.55583647E-15  1.91970178E-14
 -2.51960934E-13  1.26723500E-12  1.75214994E-01  4.29371389E-13  4.36479058E-13
  1.30102000E-12  2.68442770E-01 -1.37677089E-11  9.13867636E-12 -9.87493265E-13
  1.71396359E-01  3.94369968E-13 -4.30811718E-02  1.16469968E-02 -5.74588989E-13
  2.64947034E-13  8.84289114E-14  1.51749184E-13 -3.89242467E-13 -1.42604509E-13
  6.43709859E-03 -6.07106112E-13 -6.88846180E-13 -3.40587048E-13  8.87086824E-03
  1.06208619E-14 -1.73200759E-16  2.45899232E-13  1.06041283E-02  2.68692639E-15
  1.10717710E-04  7.22061940E-04  2.31734180E-14  1.04946129E-14  3.87062492E-13
  9.94478931E-13 -6.49406561E-13  2.17739220E-14 -2.80445871E-14  2.44065955E-04
 -1.05059412E-02 -1.68447863E-02 -1.88285474E-01  4.76228422E-02 -3.50361757E-13
  4.23210009E-02 -2.64128004E-01  6.46592465E-02 -1.20176199E-12  7.96685393E-02
 -2.06597361E-01  5.63463125E-02  1.11077146E-12  8.51016409E-03 -1.36037993E-13
 -2.93012719E-14 -1.42641673E-02  7.25524911E-03 -5.71194326E-02 -9.19754126E-02
  2.14090371E-01 -5.44895988E-02  5.03979548E-13  2.54168314E-01  2.97636886E-01
 -7.74726870E-02  1.44622762E-12  4.71627995E-01  1.28966307E-01 -2.91441155E-02
 -1.23242395E-12  1.37521705E-02 -7.26885169E-14 -7.58971063E-14 -2.54058439E-02
  1.45667241E-02  1.43273433E-05  1.37714791E-04  1.78496244E-02  1.05201222E-02
 -7.41004519E-13 -3.13701805E-03  2.35607512E-02  1.34796291E-02 -9.71992880E-13
  1.43372306E-02  2.17704736E-02  1.94204615E-02 -7.24108240E-13  1.82493586E-04
  1.16687365E-13  4.37293392E-14 -1.57507097E-03 -3.95939414E-04 -1.44535691E-02
 -2.27840733E-02  4.36457276E-03 -2.78882515E-03 -3.24605797E-04  1.72944515E-13
  6.67548511E-03  1.10658981E-02  2.79140964E-02  3.64110406E-02  6.72609804E-13
 -3.77116562E-02  3.91406532E-02  5.49040289E-02  1.08257121E-12 -4.86547452E-02
  2.08735505E-02  3.43289117E-02  2.46123974E-13 -1.84551029E-03  1.24373533E-13
  4.85171749E-14  1.19079773E-03  6.37883907E-03  5.71319464E-03  9.65753911E-03
 -3.41342505E-03  4.99999961E-02  7.10122727E-13 -3.75471059E-02 -3.27769786E-03
  7.87111929E-02  8.49858916E-13  2.17641094E-03 -2.28242634E-02  4.21133365E-02
  1.13938118E-12 -2.95428296E-03 -1.01371497E-13  9.40049470E-14 -3.54760446E-03
 -6.38143089E-03 -4.52429502E-02 -7.30089965E-02  2.39655068E-01  4.00366059E-02
 -1.40613556E-11  2.09875380E-01  3.28906419E-01  5.59536086E-02 -1.94179116E-11
  3.64925332E-01  2.60614376E-01  4.08781911E-02 -1.53007917E-11  8.78558023E-03
  1.45417912E-12  2.12939913E-13 -1.12814730E-02 -3.92223770E-03 -1.64349890E-01
 -2.65876343E-01 -8.04979980E-02 -2.57310989E-02 -6.17162759E-03  1.30101581E-12
  2.31846797E-13  3.82590995E-13  6.35790623E-13  1.23786341E-12 -5.37593564E-03
 -1.30704515E-12  7.31963122E-13  1.59233703E-12 -1.16363367E-02 -1.26160908E-12
  1.29017590E-12  1.93867600E-12  9.11112216E-03 -6.49693817E-14 -2.73828971E-03
 -1.69829701E-03 -7.12174107E-14  2.50458569E-13  2.72615072E-13  4.55199247E-13
  2.36757240E-13  1.71466434E-12 -1.68812431E-02 -1.83584843E-12  7.30636650E-14
  2.41024387E-12 -2.94800937E-02 -3.07630903E-13  1.30226781E-13  1.28459648E-12
 -1.74769472E-02 -1.40868668E-13  1.93596963E-03 -2.20629592E-03 -2.35603102E-13
 -2.38044691E-14 -1.18964654E-13 -2.23802782E-13  1.71710252E-11  2.28273038E-12
  3.07518350E-01  1.50899996E-12  2.35562384E-11  3.10879370E-12  4.21080641E-01
 -4.80569706E-12  3.15945885E-11  4.79197003E-12  4.82183420E-01  1.71476058E-12
 -1.31908626E-02 -1.97339987E-03 -1.28692818E-12 -4.53431221E-13 -3.69818768E-13
  4.82396657E-12  1.75516693E-12  3.25550145E-12  4.86252150E-13  3.40464525E-02
  3.20360097E-03  5.32499900E-03 -4.28182715E-02 -1.92341385E-01 -7.23568397E-13
 -1.75908199E-02 -6.08621510E-02 -2.74441525E-01 -1.17585220E-12 -3.43202663E-02
 -9.35998089E-02 -3.38561827E-01 -1.36397902E-12 -7.48168520E-04 -8.11973052E-14
 -4.67196732E-14  4.74153792E-03  1.05248583E-02  5.87074438E-04  1.00275786E-03
  5.77501132E-02  2.43795102E-01  8.05492664E-13 -4.98305570E-03  8.38900062E-02
  3.63121427E-01  1.42002472E-12  1.98737637E-02  8.67889890E-02  4.06999880E-01
  1.47322587E-12 -1.03658526E-03 -1.24697630E-13 -9.84957894E-14  1.97533533E-03
  4.93646180E-03  3.75891259E-03  6.18673499E-03 -2.71972173E-02  1.10197064E-01
  5.73423590E-13 -2.08013301E-02 -3.61574375E-02  1.49879728E-01  8.22487448E-13
 -1.43976762E-02 -5.66142891E-02  1.94146308E-01  1.22784111E-12 -1.12062501E-03
 -1.53747015E-13  3.04966982E-13 -3.12499495E-04 -3.81559194E-03  6.05159826E-04
 -1.04156719E-02  1.13699798E-02 -4.25287021E-03  1.22097800E-02  2.48257749E-13
  1.01792037E-02  1.69575904E-02  4.85823442E-02  1.19885139E-01  4.00865308E-12
 -5.95403013E-02  7.34373652E-02  1.69748952E-01  5.62381801E-12 -7.72613861E-02
  3.66780457E-02  2.02237426E-01  7.78183163E-12 -3.06323502E-03 -1.49445278E-13
  8.44390301E-14 -2.46507566E-03  2.55816700E-03 -3.46248433E-04 -5.19551336E-04
 -3.09203894E-02 -9.25444983E-02 -4.78222631E-12  7.90776341E-04 -4.69465438E-02
 -1.38024716E-01 -7.69321811E-12  3.87411708E-02 -8.13310825E-02 -1.66048593E-01
 -8.59614125E-12 -9.68453439E-04 -1.88268306E-15  4.40603982E-14 -4.74463047E-03
 -7.89429930E-03 -3.24575307E-03 -5.18697928E-03 -4.73585754E-02  2.64260218E-01
  5.36900295E-13  1.40506354E-02 -6.37777857E-02  3.59122648E-01  7.66428731E-13
  3.29703670E-02 -8.87715347E-02  4.78487804E-01  1.27531144E-12  2.89375425E-04
 -2.46639499E-13  7.52782555E-13  4.98738592E-03 -1.09169332E-02 -4.27263632E-03
 -2.20172149E-03 -2.91730743E-02 -7.14307173E-03  3.38975923E-02  5.80863504E-14
  2.04591726E-13  3.43733612E-13  1.43562806E-12  2.76453149E-12 -2.20596690E-01
 -1.20836085E-12  2.09907702E-12  3.78644049E-12 -3.13978167E-01 -4.24716925E-12
  1.74426284E-12  4.65770532E-12 -4.22358994E-01 -6.90892920E-15  1.04945069E-02
 -3.39575802E-03 -2.89833480E-13 -1.34370797E-13  2.88364185E-14  9.64158268E-14
 -1.51528537E-12 -2.33713508E-12  2.60290610E-01 -1.06497362E-12 -8.54259725E-13
 -3.42276793E-12  3.88557339E-01  4.19131531E-12 -7.22282917E-12 -3.29298062E-12
  5.00731786E-01 -2.55703069E-14  6.66335350E-03 -8.42620020E-04 -3.67208558E-13
 -3.76513594E-13  8.21997256E-15  8.65809981E-15 -2.92232710E-13  4.48327945E-12
  1.26311415E-02  1.06365133E-13 -3.20927271E-13  6.15798251E-12  1.82911024E-02
 -1.05660046E-12 -5.12293180E-15  8.14411883E-12  1.66725220E-02  7.50917304E-14
 -4.42100742E-04 -1.06179700E-03  3.43972003E-14 -1.97071820E-13  2.40081011E-13
  9.92040351E-13  6.34866402E-13  1.91890366E-13  5.74709603E-13  1.94244198E-03
  8.20490522E-03  1.36817326E-02  1.11294626E-02  1.64959638E-02  3.59121846E-13
 -4.57094758E-02  1.49078227E-02  1.78965101E-02  9.72705482E-13 -1.44963624E-01
 -3.04837286E-02  6.29644615E-02 -1.36795423E-12 -3.97895067E-04 -7.42929669E-15
  6.48799230E-14 -4.58943406E-04  3.63620320E-03  2.11659823E-03  3.94346847E-03
 -7.33476505E-03  1.15942731E-02 -1.55084122E-13 -2.58355140E-02 -1.69452215E-02
  2.28079169E-02 -4.19693670E-13  1.07136298E-01 -8.23855058E-02 -7.13217661E-04
  1.56637956E-13 -1.96464440E-03 -3.98377387E-14  5.18804561E-14 -2.66445399E-03
 -2.85389234E-04  3.31606524E-02  5.28115739E-02  1.26457088E-01  3.12435139E-02
 -7.90082081E-12 -1.32609442E-01  1.68768803E-01  4.06165749E-02 -1.11668854E-11
 -6.89473290E-01  3.42961320E-01  8.14284482E-02 -1.80872997E-11  2.08373237E-03
  9.66379483E-13  1.39571803E-13 -4.33528568E-03 -2.40496955E-03  5.50073564E-02
  5.20111625E-02  1.33532547E+00 -2.30115735E-02 -3.12294654E-03  1.03868753E-12
 -5.88915509E-02 -9.83717063E-02  1.33363908E-01 -1.80634412E-02  4.98329644E-13
  3.13372977E-01  1.71331537E-01  4.17628135E-03  3.66321144E-12  2.28648866E+00
  1.25572066E+00 -3.63274166E-01  6.61370586E-14 -4.41108047E-04  4.80825815E-13
 -1.27391183E-13 -6.58125734E-04  3.35119434E-03  3.41509066E-02  5.58142042E-02
  1.22829992E-01 -1.60856838E-02  2.74373193E-12 -1.15327245E-01  1.74220141E-01
  5.84828459E-03  8.92985752E-12 -2.23636377E+00  1.91456481E+00 -5.34075490E-01
 -3.48816366E-12 -2.01031747E-02 -5.28096556E-13  3.26314239E-13  2.79016620E-02
 -2.00900300E-02 -3.68216218E-03 -6.85744471E-03  3.35972024E-02  3.13279259E-02
 -1.10063988E-12  4.16439194E-02  5.44868950E-02  5.66200234E-02 -2.09160721E-12
 -1.04054147E-01  1.07633919E-01  3.35312537E-02 -4.31220732E-12  2.43148356E-03
  8.12844919E-14  2.24313356E-14 -1.00958742E-03 -2.51328489E-03  5.88461657E-03
  1.65074542E-01  5.25672918E-02  4.27690774E-04  6.46868936E-03  1.47352043E-13
 -5.05877605E-04 -9.80645815E-04 -3.16457834E-02 -1.01898321E-03  2.71680174E-12
  5.36408164E-03 -9.98904109E-02 -7.32653136E-03  7.13280374E-12 -2.05027961E-01
  8.13045625E-02  5.95109855E-02 -5.72215251E-12  3.65870533E-03  6.22127181E-13
  3.33302068E-13 -1.16928452E-02  4.42022980E-03  1.02847567E-02  2.06366987E-02
  1.66166070E-02  4.21343255E-02  2.57541516E-12 -1.69418762E-01  5.42702995E-02
  9.99814260E-02  9.43037430E-12  2.61748687E-01 -2.63672397E-01 -8.78755674E-02
 -1.21522029E-11 -3.98570277E-03 -8.97987921E-13  6.70015814E-13 -6.77416206E-03
  9.71394574E-03  1.91004918E-02  3.20411808E-02  1.25497787E-01  2.38715444E-02
 -8.47074963E-12 -9.11160625E-02  1.98797102E-01  3.26493830E-02 -1.43988395E-11