 Entering Gaussian System, Link 0=g09
 Input=model.com
 Output=model.log
 AtFile(1): model.xyz
            S         -0.49965        0.82048        1.64491
            C         -1.75354       -0.74180        0.01289
            N         -0.50825       -1.75924        0.22251
            C          0.33354       -1.94077       -0.98757
            H          0.01540       -1.22755        0.95512
            C         -2.90309       -1.06132        0.98208
            O         -1.83419       -0.24957       -1.08304
            H         -0.75959       -2.68157        0.59584
            H          1.15745        2.24473        0.52184
            C          0.17901        1.86573        0.29610
            H         -0.47625        2.72515        0.13522
            H          0.19904        1.31222       -0.64728
            H         -3.70766       -0.37486        0.81976
            H         -2.55529       -0.97130        1.98996
            H         -3.24651       -2.06019        0.81114
            H         -0.21639       -2.48577       -1.72612
            H          1.21810       -2.48420       -0.72846
            H          0.60536       -0.98312       -1.37990
 AtFile(1): /home/MARQNET/talipovm/basis-library/def2-SV(P)+d.gbs
            !  Def2-SV(P)  EMSL  Basis Set Exchange Library   3/29/11 8:36 AM
            ! Elements                             References
            ! --------                             ----------
            ! H He Li Be B C N O F Ne Na Mg Al Si P S Cl Ar K Ca Sc Ti V Cr Mn Fe Co Ni Cu Zn Ga Ge As Se Br Kr Rb Sr Y Zr Nb Mo Tc Ru Rh Pd Ag Cd In Sn Sb Te I Xe Cs Ba La Hf Ta W Re Os Ir Pt Au Hg Tl Pb Bi Po At Rn : F. Weigend and R. Ahlrichs, Phys. Chem. Chem. Phys., Balanced basis sets of split valence, triple zeta valence and quadruple zeta valence
            ! quality for H to Rn: Design and assessment of accuracy 7, 3297 (2005).
            !
            -H     0
            S   3   1.00
                 13.0107010              0.19682158E-01
                  1.9622572              0.13796524
                  0.44453796             0.47831935
            S   1   1.00
                  0.12194962             1.0000000
            ****
            -B     0
            S   5   1.00
                839.31830086            -0.55929201074E-02
                126.26464843            -0.41565520771E-01
                 28.620600763           -0.18299816983
                  7.8793722710          -0.46540391866
                  2.4088857172          -0.44173884791
            S   1   1.00
                  0.25105109036          1.0000000
            S   1   1.00
                  0.83648866069E-01            1.0000000
            P   3   1.00
                  6.0332223619          -0.35603672456E-01
                  1.2499157866          -0.19895775769
                  0.33871676350         -0.50850202618
            P   1   1.00
                  0.96415632351E-01            1.0000000
            D   1   1.00
                  0.5000000              1.0000000
            ****
            -C     0
            S   5   1.00
               1238.4016938              0.54568832082E-02
                186.29004992             0.40638409211E-01
                 42.251176346            0.18025593888
                 11.676557932            0.46315121755
                  3.5930506482           0.44087173314
            S   1   1.00
                  0.40245147363          1.0000000
            S   1   1.00
                  0.13090182668          1.0000000
            P   3   1.00
                  9.4680970621           0.38387871728E-01
                  2.0103545142           0.21117025112
                  0.54771004707          0.51328172114
            P   1   1.00
                  0.15268613795          1.0000000
            D   1   1.00
                  0.8000000              1.0000000
            ****
            -N     0
            S   5   1.00
               1712.8415853             -0.53934125305E-02
                257.64812677            -0.40221581118E-01
                 58.458245853           -0.17931144990
                 16.198367905           -0.46376317823
                  5.0052600809          -0.44171422662
            S   1   1.00
                  0.58731856571          1.0000000
            S   1   1.00
                  0.18764592253          1.0000000
            P   3   1.00
                 13.571470233           -0.40072398852E-01
                  2.9257372874          -0.21807045028
                  0.79927750754         -0.51294466049
            P   1   1.00
                  0.21954348034          1.0000000
            D   1   1.00
                  1.0000000              1.0000000
            ****
            -O     0
            S   5   1.00
               2266.1767785             -0.53431809926E-02
                340.87010191            -0.39890039230E-01
                 77.363135167           -0.17853911985
                 21.479644940           -0.46427684959
                  6.6589433124          -0.44309745172
            S   1   1.00
                  0.80975975668          1.0000000
            S   1   1.00
                  0.25530772234          1.0000000
            P   3   1.00
                 17.721504317            0.43394573193E-01
                  3.8635505440           0.23094120765
                  1.0480920883           0.51375311064
            P   1   1.00
                  0.27641544411          1.0000000
            D   1   1.00
                  1.2000000              1.0000000
            ****
            -F     0
            S   5   1.00
               2894.8325990             -0.53408255515E-02
                435.41939120            -0.39904258866E-01
                 98.843328866           -0.17912768038
                 27.485198001           -0.46758090825
                  8.5405498171          -0.44653131020
            S   1   1.00
                  1.0654578038           1.0000000
            S   1   1.00
                  0.33247346748          1.0000000
            P   3   1.00
                 22.696633924           -0.45212874436E-01
                  4.9872339257          -0.23754317067
                  1.3491613954          -0.51287353587
            P   1   1.00
                  0.34829881977          1.0000000
            D   1   1.00
                  1.4000000              1.0000000
            ****
            -S     0
            S   5   1.00
               9184.9303010             -0.22294387756E-02
               1381.5105503             -0.16683029937E-01
                313.87147580            -0.75262436116E-01
                 88.053870623           -0.19376827038
                 27.039914905           -0.17718020803
            S   3   1.00
                 45.648731303           -0.10736062573
                  4.9664522326           0.65066293018
                  2.0116242047           0.59712155354
            S   1   1.00
                  0.35661077013          1.0000000
            S   1   1.00
                  0.13507221477          1.0000000
            P   5   1.00
                261.98233439            -0.92729929822E-02
                 61.306894736           -0.66547669241E-01
                 19.103729887           -0.24828595903
                  6.6567720378          -0.48703847402
                  2.3959635161          -0.39337850312
            P   1   1.00
                  0.61776161679          1.0000000
            P   1   1.00
                  0.16993376871          1.0000000
            D   1   1.00
                  0.5500000              1.0000000
            D   1   1.00
                  2.9940000              1.0000000
            ****
            -Cl     0
            S   5   1.00
              10449.8275660              0.19708362484E-02
               1571.7365221              0.14754727977E-01
                357.12065523             0.66679112875E-01
                100.25185935             0.17228924084
                 30.812727554            0.15883786100
            S   3   1.00
                 51.923789434           -0.10009298909
                  5.7045760975           0.60841752753
                  2.3508376809           0.54352153355
            S   1   1.00
                  0.44605124672          1.0000000
            S   1   1.00
                  0.16848856190          1.0000000
            P   5   1.00
                307.66790569            -0.87801484118E-02
                 72.102015515           -0.63563355471E-01
                 22.532680262           -0.24016428276
                  7.8991765444          -0.47798866557
                  2.8767268321          -0.38515850005
            P   1   1.00
                  0.77459363955          1.0000000
            P   1   1.00
                  0.21037699698          1.0000000
            D   1   1.00
                  3.6520000              1.0000000
            D   1   1.00
                  0.6500000              1.0000000
            ****
 Initial command:
 /group/hpc-share/gaussian/2009B/g09/l1.exe /tmp/g_model.com-273675.hn1.marqnet.mu.edu/Gau-3179.inp -scrdir=/tmp/g_model.com-273675.hn1.marqnet.mu.edu/
 Entering Link 1 = /group/hpc-share/gaussian/2009B/g09/l1.exe PID=      3180.
  
 Copyright (c) 1988,1990,1992,1993,1995,1998,2003,2009,2010,
            Gaussian, Inc.  All Rights Reserved.
  
 This is part of the Gaussian(R) 09 program.  It is based on
 the Gaussian(R) 03 system (copyright 2003, Gaussian, Inc.),
 the Gaussian(R) 98 system (copyright 1998, Gaussian, Inc.),
 the Gaussian(R) 94 system (copyright 1995, Gaussian, Inc.),
 the Gaussian 92(TM) system (copyright 1992, Gaussian, Inc.),
 the Gaussian 90(TM) system (copyright 1990, Gaussian, Inc.),
 the Gaussian 88(TM) system (copyright 1988, Gaussian, Inc.),
 the Gaussian 86(TM) system (copyright 1986, Carnegie Mellon
 University), and the Gaussian 82(TM) system (copyright 1983,
 Carnegie Mellon University). Gaussian is a federally registered
 trademark of Gaussian, Inc.
  
 This software contains proprietary and confidential information,
 including trade secrets, belonging to Gaussian, Inc.
  
 This software is provided under written license and may be
 used, copied, transmitted, or stored only in accord with that
 written license.
  
 The following legend is applicable only to US Government
 contracts under FAR:
  
                    RESTRICTED RIGHTS LEGEND
  
 Use, reproduction and disclosure by the US Government is
 subject to restrictions as set forth in subparagraphs (a)
 and (c) of the Commercial Computer Software - Restricted
 Rights clause in FAR 52.227-19.
  
 Gaussian, Inc.
 340 Quinnipiac St., Bldg. 40, Wallingford CT 06492
  
  
 ---------------------------------------------------------------
 Warning -- This program may not be used in any manner that
 competes with the business of Gaussian, Inc. or will provide
 assistance to any competitor of Gaussian, Inc.  The licensee
 of this program is prohibited from giving any competitor of
 Gaussian, Inc. access to this program.  By using this program,
 the user acknowledges that Gaussian, Inc. is engaged in the
 business of creating and licensing software in the field of
 computational chemistry and represents and warrants to the
 licensee that it is not a competitor of Gaussian, Inc. and that
 it will not use this program in any manner prohibited above.
 ---------------------------------------------------------------
  

 Cite this work as:
 Gaussian 09, Revision B.01,
 M. J. Frisch, G. W. Trucks, H. B. Schlegel, G. E. Scuseria, 
 M. A. Robb, J. R. Cheeseman, G. Scalmani, V. Barone, B. Mennucci, 
 G. A. Petersson, H. Nakatsuji, M. Caricato, X. Li, H. P. Hratchian, 
 A. F. Izmaylov, J. Bloino, G. Zheng, J. L. Sonnenberg, M. Hada, 
 M. Ehara, K. Toyota, R. Fukuda, J. Hasegawa, M. Ishida, T. Nakajima, 
 Y. Honda, O. Kitao, H. Nakai, T. Vreven, J. A. Montgomery, Jr., 
 J. E. Peralta, F. Ogliaro, M. Bearpark, J. J. Heyd, E. Brothers, 
 K. N. Kudin, V. N. Staroverov, T. Keith, R. Kobayashi, J. Normand, 
 K. Raghavachari, A. Rendell, J. C. Burant, S. S. Iyengar, J. Tomasi, 
 M. Cossi, N. Rega, J. M. Millam, M. Klene, J. E. Knox, J. B. Cross, 
 V. Bakken, C. Adamo, J. Jaramillo, R. Gomperts, R. E. Stratmann, 
 O. Yazyev, A. J. Austin, R. Cammi, C. Pomelli, J. W. Ochterski, 
 R. L. Martin, K. Morokuma, V. G. Zakrzewski, G. A. Voth, 
 P. Salvador, J. J. Dannenberg, S. Dapprich, A. D. Daniels, 
 O. Farkas, J. B. Foresman, J. V. Ortiz, J. Cioslowski, 
 and D. J. Fox, Gaussian, Inc., Wallingford CT, 2010.
 
 ******************************************
 Gaussian 09:  EM64L-G09RevB.01 12-Aug-2010
                18-Apr-2012 
 ******************************************
 %nproc=8
 Will use up to    8 processors via shared memory.
 %mem=12Gb
 %chk=model.chk
 ----------------------------------------------------------------------
 #p pbe1pbe/gen opt(ts,calcfc,noeigentest) freq scrf(pcm,solvent=water)
  pop(nboread)
 ----------------------------------------------------------------------
 1/5=1,10=4,11=1,14=-1,18=20,26=3,38=1/1,3;
 2/9=110,12=2,17=6,18=5,40=1/2;
 3/5=7,11=2,16=1,25=1,30=1,70=2201,71=2,72=1,74=-13/1,2,3;
 4//1;
 5/5=2,38=5,53=1/2;
 8/6=4,10=90,11=11/1;
 11/6=1,8=1,9=11,15=111,16=1/1,2,10;
 10/6=1,7=6,13=1/2;
 6/7=2,8=2,9=2,10=2,28=1,40=1/1,7;
 7/10=1,18=20,25=1/1,2,3,16;
 1/5=1,10=4,11=1,14=-1,18=20/3(2);
 2/9=110/2;
 99//99;
 2/9=110/2;
 3/5=7,6=1,11=2,16=1,25=1,30=1,70=2205,71=1,72=1,74=-13,82=7/1,2,3;
 4/5=5,16=3/1;
 5/5=2,38=5,53=1/2;
 7//1,2,3,16;
 1/5=1,11=1,14=-1,18=20/3(-5);
 2/9=110/2;
 6/7=2,8=2,9=2,10=2,19=2,28=1,40=1/1,7;
 99/9=1/99;
 Leave Link    1 at Wed Apr 18 15:47:40 2012, MaxMem= 1610612736 cpu:       0.8
 (Enter /group/hpc-share/gaussian/2009B/g09/l101.exe)


 Symbolic Z-matrix:
 Charge =  0 Multiplicity = 1
 S                    -0.49965   0.82048   1.64491 
 C                    -1.75354  -0.7418    0.01289 
 N                    -0.50825  -1.75924   0.22251 
 C                     0.33354  -1.94077  -0.98757 
 H                     0.0154   -1.22755   0.95512 
 C                    -2.90309  -1.06132   0.98208 
 O                    -1.83419  -0.24957  -1.08304 
 H                    -0.75959  -2.68157   0.59584 
 H                     1.15745   2.24473   0.52184 
 C                     0.17901   1.86573   0.2961 
 H                    -0.47625   2.72515   0.13522 
 H                     0.19904   1.31222  -0.64728 
 H                    -3.70766  -0.37486   0.81976 
 H                    -2.55529  -0.9713    1.98996 
 H                    -3.24651  -2.06019   0.81114 
 H                    -0.21639  -2.48577  -1.72612 
 H                     1.2181   -2.4842   -0.72846 
 H                     0.60536  -0.98312  -1.3799 
 
 NAtoms=     18 NQM=     18 NQMF=      0 NMic=      0 NMicF=      0 NTot=     18.
                    Isotopes and Nuclear Properties:
 (Nuclear quadrupole moments (NQMom) in fm**2, nuclear magnetic moments (NMagM)
  in nuclear magnetons)

  Atom         1           2           3           4           5           6           7           8           9          10
 IAtWgt=          32          12          14          12           1          12          16           1           1          12
 AtmWgt=  31.9720718  12.0000000  14.0030740  12.0000000   1.0078250  12.0000000  15.9949146   1.0078250   1.0078250  12.0000000
 NucSpn=           0           0           2           0           1           0           0           1           1           0
 AtZEff=   0.0000000   0.0000000   0.0000000   0.0000000   0.0000000   0.0000000   0.0000000   0.0000000   0.0000000   0.0000000
 NQMom=    0.0000000   0.0000000   2.0440000   0.0000000   0.0000000   0.0000000   0.0000000   0.0000000   0.0000000   0.0000000
 NMagM=    0.0000000   0.0000000   0.4037610   0.0000000   2.7928460   0.0000000   0.0000000   2.7928460   2.7928460   0.0000000

  Atom        11          12          13          14          15          16          17          18
 IAtWgt=           1           1           1           1           1           1           1           1
 AtmWgt=   1.0078250   1.0078250   1.0078250   1.0078250   1.0078250   1.0078250   1.0078250   1.0078250
 NucSpn=           1           1           1           1           1           1           1           1
 AtZEff=   0.0000000   0.0000000   0.0000000   0.0000000   0.0000000   0.0000000   0.0000000   0.0000000
 NQMom=    0.0000000   0.0000000   0.0000000   0.0000000   0.0000000   0.0000000   0.0000000   0.0000000
 NMagM=    2.7928460   2.7928460   2.7928460   2.7928460   2.7928460   2.7928460   2.7928460   2.7928460
 Leave Link  101 at Wed Apr 18 15:47:40 2012, MaxMem= 1610612736 cpu:       0.8
 (Enter /group/hpc-share/gaussian/2009B/g09/l103.exe)

 GradGradGradGradGradGradGradGradGradGradGradGradGradGradGradGradGradGrad
 Berny optimization.
 Initialization pass.
                           ----------------------------
                           !    Initial Parameters    !
                           ! (Angstroms and Degrees)  !
 --------------------------                            --------------------------
 ! Name  Definition              Value          Derivative Info.                !
 --------------------------------------------------------------------------------
 ! R1    R(1,2)                  2.5839         calculate D2E/DX2 analytically  !
 ! R2    R(1,5)                  2.2216         calculate D2E/DX2 analytically  !
 ! R3    R(1,10)                 1.8364         calculate D2E/DX2 analytically  !
 ! R4    R(1,14)                 2.7487         calculate D2E/DX2 analytically  !
 ! R5    R(2,3)                  1.6217         calculate D2E/DX2 analytically  !
 ! R6    R(2,6)                  1.5372         calculate D2E/DX2 analytically  !
 ! R7    R(2,7)                  1.2041         calculate D2E/DX2 analytically  !
 ! R8    R(3,4)                  1.4852         calculate D2E/DX2 analytically  !
 ! R9    R(3,5)                  1.0458         calculate D2E/DX2 analytically  !
 ! R10   R(3,8)                  1.0263         calculate D2E/DX2 analytically  !
 ! R11   R(4,16)                 1.07           calculate D2E/DX2 analytically  !
 ! R12   R(4,17)                 1.07           calculate D2E/DX2 analytically  !
 ! R13   R(4,18)                 1.07           calculate D2E/DX2 analytically  !
 ! R14   R(6,13)                 1.07           calculate D2E/DX2 analytically  !
 ! R15   R(6,14)                 1.07           calculate D2E/DX2 analytically  !
 ! R16   R(6,15)                 1.07           calculate D2E/DX2 analytically  !
 ! R17   R(7,12)                 2.6006         calculate D2E/DX2 analytically  !
 ! R18   R(9,10)                 1.0733         calculate D2E/DX2 analytically  !
 ! R19   R(10,11)                1.0926         calculate D2E/DX2 analytically  !
 ! R20   R(10,12)                1.094          calculate D2E/DX2 analytically  !
 ! A1    A(2,1,5)               50.1341         calculate D2E/DX2 analytically  !
 ! A2    A(2,1,10)              93.415          calculate D2E/DX2 analytically  !
 ! A3    A(2,1,14)              47.3304         calculate D2E/DX2 analytically  !
 ! A4    A(5,1,10)             102.18           calculate D2E/DX2 analytically  !
 ! A5    A(5,1,14)              67.1338         calculate D2E/DX2 analytically  !
 ! A6    A(10,1,14)            137.6985         calculate D2E/DX2 analytically  !
 ! A7    A(1,2,3)               85.702          calculate D2E/DX2 analytically  !
 ! A8    A(1,2,6)               95.1837         calculate D2E/DX2 analytically  !
 ! A9    A(1,2,7)              111.1131         calculate D2E/DX2 analytically  !
 ! A10   A(3,2,6)              111.2446         calculate D2E/DX2 analytically  !
 ! A11   A(3,2,7)              115.186          calculate D2E/DX2 analytically  !
 ! A12   A(6,2,7)              127.4989         calculate D2E/DX2 analytically  !
 ! A13   A(2,3,4)              113.9913         calculate D2E/DX2 analytically  !
 ! A14   A(2,3,5)               98.9797         calculate D2E/DX2 analytically  !
 ! A15   A(2,3,8)              115.0121         calculate D2E/DX2 analytically  !
 ! A16   A(4,3,5)              110.4329         calculate D2E/DX2 analytically  !
 ! A17   A(4,3,8)              108.9865         calculate D2E/DX2 analytically  !
 ! A18   A(5,3,8)              108.9486         calculate D2E/DX2 analytically  !
 ! A19   A(3,4,16)             109.4707         calculate D2E/DX2 analytically  !
 ! A20   A(3,4,17)             109.4709         calculate D2E/DX2 analytically  !
 ! A21   A(3,4,18)             109.4711         calculate D2E/DX2 analytically  !
 ! A22   A(16,4,17)            109.4717         calculate D2E/DX2 analytically  !
 ! A23   A(16,4,18)            109.4718         calculate D2E/DX2 analytically  !
 ! A24   A(17,4,18)            109.4711         calculate D2E/DX2 analytically  !
 ! A25   A(1,5,3)              124.7591         calculate D2E/DX2 analytically  !
 ! A26   A(2,6,13)             109.4704         calculate D2E/DX2 analytically  !
 ! A27   A(2,6,14)             109.4711         calculate D2E/DX2 analytically  !
 ! A28   A(2,6,15)             109.4715         calculate D2E/DX2 analytically  !
 ! A29   A(13,6,14)            109.4712         calculate D2E/DX2 analytically  !
 ! A30   A(13,6,15)            109.4711         calculate D2E/DX2 analytically  !
 ! A31   A(14,6,15)            109.472          calculate D2E/DX2 analytically  !
 ! A32   A(2,7,12)              92.3284         calculate D2E/DX2 analytically  !
 ! A33   A(1,10,9)             112.545          calculate D2E/DX2 analytically  !
 ! A34   A(1,10,11)            109.5246         calculate D2E/DX2 analytically  !
 ! A35   A(1,10,12)            110.6196         calculate D2E/DX2 analytically  !
 ! A36   A(9,10,11)            107.4533         calculate D2E/DX2 analytically  !
 ! A37   A(9,10,12)            110.0813         calculate D2E/DX2 analytically  !
 ! A38   A(11,10,12)           106.3785         calculate D2E/DX2 analytically  !
 ! A39   A(7,12,10)            115.7245         calculate D2E/DX2 analytically  !
 ! A40   A(1,14,6)             100.3517         calculate D2E/DX2 analytically  !
 ! D1    D(5,1,2,3)             -3.0419         calculate D2E/DX2 analytically  !
 ! D2    D(5,1,2,6)            107.9384         calculate D2E/DX2 analytically  !
 ! D3    D(5,1,2,7)           -118.4109         calculate D2E/DX2 analytically  !
 ! D4    D(10,1,2,3)            99.9924         calculate D2E/DX2 analytically  !
 ! D5    D(10,1,2,6)          -149.0273         calculate D2E/DX2 analytically  !
 ! D6    D(10,1,2,7)           -15.3767         calculate D2E/DX2 analytically  !
 ! D7    D(14,1,2,3)           -97.7034         calculate D2E/DX2 analytically  !
 ! D8    D(14,1,2,6)            13.2769         calculate D2E/DX2 analytically  !
 ! D9    D(14,1,2,7)           146.9276         calculate D2E/DX2 analytically  !
 ! D10   D(2,1,5,3)              5.7324         calculate D2E/DX2 analytically  !
 ! D11   D(10,1,5,3)           -78.479          calculate D2E/DX2 analytically  !
 ! D12   D(14,1,5,3)            58.4203         calculate D2E/DX2 analytically  !
 ! D13   D(2,1,10,9)          -146.176          calculate D2E/DX2 analytically  !
 ! D14   D(2,1,10,11)           94.3673         calculate D2E/DX2 analytically  !
 ! D15   D(2,1,10,12)          -22.5747         calculate D2E/DX2 analytically  !
 ! D16   D(5,1,10,9)           -96.2698         calculate D2E/DX2 analytically  !
 ! D17   D(5,1,10,11)          144.2734         calculate D2E/DX2 analytically  !
 ! D18   D(5,1,10,12)           27.3314         calculate D2E/DX2 analytically  !
 ! D19   D(14,1,10,9)         -165.5707         calculate D2E/DX2 analytically  !
 ! D20   D(14,1,10,11)          74.9725         calculate D2E/DX2 analytically  !
 ! D21   D(14,1,10,12)         -41.9695         calculate D2E/DX2 analytically  !
 ! D22   D(2,1,14,6)           -19.5127         calculate D2E/DX2 analytically  !
 ! D23   D(5,1,14,6)           -75.6374         calculate D2E/DX2 analytically  !
 ! D24   D(10,1,14,6)            7.2843         calculate D2E/DX2 analytically  !
 ! D25   D(1,2,3,4)           -112.1804         calculate D2E/DX2 analytically  !
 ! D26   D(1,2,3,5)              5.0256         calculate D2E/DX2 analytically  !
 ! D27   D(1,2,3,8)            120.9062         calculate D2E/DX2 analytically  !
 ! D28   D(6,2,3,4)            153.921          calculate D2E/DX2 analytically  !
 ! D29   D(6,2,3,5)            -88.873          calculate D2E/DX2 analytically  !
 ! D30   D(6,2,3,8)             27.0076         calculate D2E/DX2 analytically  !
 ! D31   D(7,2,3,4)             -0.8447         calculate D2E/DX2 analytically  !
 ! D32   D(7,2,3,5)            116.3613         calculate D2E/DX2 analytically  !
 ! D33   D(7,2,3,8)           -127.7581         calculate D2E/DX2 analytically  !
 ! D34   D(1,2,6,13)            92.6063         calculate D2E/DX2 analytically  !
 ! D35   D(1,2,6,14)           -27.3931         calculate D2E/DX2 analytically  !
 ! D36   D(1,2,6,15)          -147.3942         calculate D2E/DX2 analytically  !
 ! D37   D(3,2,6,13)          -179.9998         calculate D2E/DX2 analytically  !
 ! D38   D(3,2,6,14)            60.0008         calculate D2E/DX2 analytically  !
 ! D39   D(3,2,6,15)           -60.0003         calculate D2E/DX2 analytically  !
 ! D40   D(7,2,6,13)           -29.0957         calculate D2E/DX2 analytically  !
 ! D41   D(7,2,6,14)          -149.0951         calculate D2E/DX2 analytically  !
 ! D42   D(7,2,6,15)            90.9038         calculate D2E/DX2 analytically  !
 ! D43   D(1,2,7,12)            22.2042         calculate D2E/DX2 analytically  !
 ! D44   D(3,2,7,12)           -73.1209         calculate D2E/DX2 analytically  !
 ! D45   D(6,2,7,12)           136.9347         calculate D2E/DX2 analytically  !
 ! D46   D(2,3,4,16)           -69.6281         calculate D2E/DX2 analytically  !
 ! D47   D(2,3,4,17)           170.3719         calculate D2E/DX2 analytically  !
 ! D48   D(2,3,4,18)            50.3723         calculate D2E/DX2 analytically  !
 ! D49   D(5,3,4,16)           179.9998         calculate D2E/DX2 analytically  !
 ! D50   D(5,3,4,17)            59.9997         calculate D2E/DX2 analytically  !
 ! D51   D(5,3,4,18)           -59.9999         calculate D2E/DX2 analytically  !
 ! D52   D(8,3,4,16)            60.3537         calculate D2E/DX2 analytically  !
 ! D53   D(8,3,4,17)           -59.6464         calculate D2E/DX2 analytically  !
 ! D54   D(8,3,4,18)          -179.646          calculate D2E/DX2 analytically  !
 ! D55   D(2,3,5,1)             -7.1038         calculate D2E/DX2 analytically  !
 ! D56   D(4,3,5,1)            112.7741         calculate D2E/DX2 analytically  !
 ! D57   D(8,3,5,1)           -127.557          calculate D2E/DX2 analytically  !
 ! D58   D(2,6,14,1)            25.9679         calculate D2E/DX2 analytically  !
 ! D59   D(13,6,14,1)          -94.031          calculate D2E/DX2 analytically  !
 ! D60   D(15,6,14,1)          145.9686         calculate D2E/DX2 analytically  !
 ! D61   D(2,7,12,10)          -48.6698         calculate D2E/DX2 analytically  !
 ! D62   D(1,10,12,7)           38.4282         calculate D2E/DX2 analytically  !
 ! D63   D(9,10,12,7)          163.4384         calculate D2E/DX2 analytically  !
 ! D64   D(11,10,12,7)         -80.4388         calculate D2E/DX2 analytically  !
 --------------------------------------------------------------------------------
 Trust Radius=3.00D-01 FncErr=1.00D-07 GrdErr=1.00D-06
 Number of steps in this run=    108 maximum allowed number of steps=    108.
 Search for a saddle point of order  1.
 GradGradGradGradGradGradGradGradGradGradGradGradGradGradGradGradGradGrad

 Leave Link  103 at Wed Apr 18 15:47:40 2012, MaxMem= 1610612736 cpu:       0.1
 (Enter /group/hpc-share/gaussian/2009B/g09/l202.exe)
                          Input orientation:                          
 ---------------------------------------------------------------------
 Center     Atomic      Atomic             Coordinates (Angstroms)
 Number     Number       Type             X           Y           Z
 ---------------------------------------------------------------------
      1         16           0       -0.499650    0.820480    1.644910
      2          6           0       -1.753540   -0.741800    0.012890
      3          7           0       -0.508250   -1.759240    0.222510
      4          6           0        0.333540   -1.940770   -0.987570
      5          1           0        0.015400   -1.227550    0.955120
      6          6           0       -2.903090   -1.061320    0.982080
      7          8           0       -1.834190   -0.249570   -1.083040
      8          1           0       -0.759590   -2.681570    0.595840
      9          1           0        1.157450    2.244730    0.521840
     10          6           0        0.179010    1.865730    0.296100
     11          1           0       -0.476250    2.725150    0.135220
     12          1           0        0.199040    1.312220   -0.647280
     13          1           0       -3.707660   -0.374860    0.819760
     14          1           0       -2.555290   -0.971300    1.989960
     15          1           0       -3.246510   -2.060190    0.811140
     16          1           0       -0.216390   -2.485770   -1.726120
     17          1           0        1.218100   -2.484200   -0.728460
     18          1           0        0.605360   -0.983120   -1.379900
 ---------------------------------------------------------------------
                    Distance matrix (angstroms):
                    1          2          3          4          5
     1  S    0.000000
     2  C    2.583882   0.000000
     3  N    2.945887   1.621688   0.000000
     4  C    3.904953   2.606598   1.485213   0.000000
     5  H    2.221602   2.062256   1.045763   2.093786   0.000000
     6  C    3.123626   1.537169   2.607546   3.889566   2.923345
     7  O    3.219894   1.204100   2.396181   2.751059   2.920877
     8  H    3.665034   2.256208   1.026275   2.061772   1.686377
     9  H    2.456777   4.201459   4.346945   4.524992   3.680861
    10  C    1.836414   3.257940   3.690278   4.020091   3.166932
    11  H    2.430531   3.696779   4.485354   4.866953   4.066669
    12  H    2.446244   2.909878   3.269658   3.273504   3.008628
    13  H    3.521511   2.145756   3.536869   4.695723   3.821855
    14  H    2.748671   2.145758   2.816931   4.260387   2.782985
    15  H    4.066777   2.145767   2.816935   4.008289   3.369581
    16  H    4.730261   2.903174   2.100045   1.070002   2.970840
    17  H    4.416385   3.523663   2.100046   1.070000   2.420764
    18  H    3.691002   2.750002   2.100049   1.070001   2.420768
                    6          7          8          9         10
     6  C    0.000000
     7  O    2.462967   0.000000
     8  H    2.714587   3.144523   0.000000
     9  H    5.256403   4.212729   5.286677   0.000000
    10  C    4.305523   3.229473   4.652822   1.073287   0.000000
    11  H    4.576470   3.489573   5.433698   1.746211   1.092635
    12  H    4.232224   2.600596   4.291233   1.776222   1.093956
    13  H    1.070004   2.673244   3.749956   5.533562   4.516710
    14  H    1.069996   3.237933   2.844843   5.126662   4.288857
    15  H    1.070000   2.976728   2.572399   6.165298   5.235676
    16  H    4.072071   2.833976   2.392677   5.414646   4.814693
    17  H    4.683454   3.799444   2.388301   4.891800   4.588172
    18  H    4.230164   2.564688   2.941321   3.786877   3.332671
                   11         12         13         14         15
    11  H    0.000000
    12  H    1.750627   0.000000
    13  H    4.529974   4.501194   0.000000
    14  H    4.628845   4.444753   1.747302   0.000000
    15  H    5.570519   5.037058   1.747304   1.747307   0.000000
    16  H    5.539477   3.970039   4.808993   4.644709   3.974976
    17  H    5.545637   3.931651   5.577581   4.890516   4.741613
    18  H    4.149305   2.443443   4.879613   4.620152   4.560443
                   16         17         18
    16  H    0.000000
    17  H    1.747309   0.000000
    18  H    1.747312   1.747302   0.000000
 Stoichiometry    C4H11NOS
 Framework group  C1[X(C4H11NOS)]
 Deg. of freedom    48
 Full point group                 C1      NOp   1
 Largest Abelian subgroup         C1      NOp   1
 Largest concise Abelian subgroup C1      NOp   1
                         Standard orientation:                         
 ---------------------------------------------------------------------
 Center     Atomic      Atomic             Coordinates (Angstroms)
 Number     Number       Type             X           Y           Z
 ---------------------------------------------------------------------
      1         16           0       -1.609100    0.310691   -0.645318
      2          6           0        0.740836    0.588381    0.392534
      3          7           0        1.238716   -0.433711   -0.763889
      4          6           0        1.680714   -1.755932   -0.251808
      5          1           0        0.342654   -0.528704   -1.294615
      6          6           0        0.913945    2.051705   -0.045191
      7          8           0        0.774568    0.149686    1.513367
      8          1           0        1.959880   -0.060687   -1.391595
      9          1           0       -2.816906   -1.640707    0.231612
     10          6           0       -2.147834   -0.899978    0.626084
     11          1           0       -2.673954   -0.377191    1.428419
     12          1           0       -1.282482   -1.383686    1.088614
     13          1           0        0.577643    2.700049    0.736767
     14          1           0        0.337791    2.230154   -0.928986
     15          1           0        1.946888    2.243507   -0.248022
     16          1           0        2.597447   -1.641073    0.287925
     17          1           0        1.831982   -2.424266   -1.073604
     18          1           0        0.931139   -2.155020    0.399167
 ---------------------------------------------------------------------
 Rotational constants (GHZ):      2.3198386      1.5262185      1.2647146
 Leave Link  202 at Wed Apr 18 15:47:40 2012, MaxMem= 1610612736 cpu:       0.0
 (Enter /group/hpc-share/gaussian/2009B/g09/l301.exe)
 General basis read from cards:  (5D, 7F)
 Centers:   5  8  9 11 12 13 14 15 16 17 18
 S 3 1.00
     Exponent=  1.3010701000D+01 Coefficients=  1.9682158000D-02
     Exponent=  1.9622572000D+00 Coefficients=  1.3796524000D-01
     Exponent=  4.4453796000D-01 Coefficients=  4.7831935000D-01
 S 1 1.00
     Exponent=  1.2194962000D-01 Coefficients=  1.0000000000D+00
 ****
 Centers:   2  4  6 10
 S 5 1.00
     Exponent=  1.2384016938D+03 Coefficients=  5.4568832082D-03
     Exponent=  1.8629004992D+02 Coefficients=  4.0638409211D-02
     Exponent=  4.2251176346D+01 Coefficients=  1.8025593888D-01
     Exponent=  1.1676557932D+01 Coefficients=  4.6315121755D-01
     Exponent=  3.5930506482D+00 Coefficients=  4.4087173314D-01
 S 1 1.00
     Exponent=  4.0245147363D-01 Coefficients=  1.0000000000D+00
 S 1 1.00
     Exponent=  1.3090182668D-01 Coefficients=  1.0000000000D+00
 P 3 1.00
     Exponent=  9.4680970621D+00 Coefficients=  3.8387871728D-02
     Exponent=  2.0103545142D+00 Coefficients=  2.1117025112D-01
     Exponent=  5.4771004707D-01 Coefficients=  5.1328172114D-01
 P 1 1.00
     Exponent=  1.5268613795D-01 Coefficients=  1.0000000000D+00
 D 1 1.00
     Exponent=  8.0000000000D-01 Coefficients=  1.0000000000D+00
 ****
 Centers:   3
 S 5 1.00
     Exponent=  1.7128415853D+03 Coefficients= -5.3934125305D-03
     Exponent=  2.5764812677D+02 Coefficients= -4.0221581118D-02
     Exponent=  5.8458245853D+01 Coefficients= -1.7931144990D-01
     Exponent=  1.6198367905D+01 Coefficients= -4.6376317823D-01
     Exponent=  5.0052600809D+00 Coefficients= -4.4171422662D-01
 S 1 1.00
     Exponent=  5.8731856571D-01 Coefficients=  1.0000000000D+00
 S 1 1.00
     Exponent=  1.8764592253D-01 Coefficients=  1.0000000000D+00
 P 3 1.00
     Exponent=  1.3571470233D+01 Coefficients= -4.0072398852D-02
     Exponent=  2.9257372874D+00 Coefficients= -2.1807045028D-01
     Exponent=  7.9927750754D-01 Coefficients= -5.1294466049D-01
 P 1 1.00
     Exponent=  2.1954348034D-01 Coefficients=  1.0000000000D+00
 D 1 1.00
     Exponent=  1.0000000000D+00 Coefficients=  1.0000000000D+00
 ****
 Centers:   7
 S 5 1.00
     Exponent=  2.2661767785D+03 Coefficients= -5.3431809926D-03
     Exponent=  3.4087010191D+02 Coefficients= -3.9890039230D-02
     Exponent=  7.7363135167D+01 Coefficients= -1.7853911985D-01
     Exponent=  2.1479644940D+01 Coefficients= -4.6427684959D-01
     Exponent=  6.6589433124D+00 Coefficients= -4.4309745172D-01
 S 1 1.00
     Exponent=  8.0975975668D-01 Coefficients=  1.0000000000D+00
 S 1 1.00
     Exponent=  2.5530772234D-01 Coefficients=  1.0000000000D+00
 P 3 1.00
     Exponent=  1.7721504317D+01 Coefficients=  4.3394573193D-02
     Exponent=  3.8635505440D+00 Coefficients=  2.3094120765D-01
     Exponent=  1.0480920883D+00 Coefficients=  5.1375311064D-01
 P 1 1.00
     Exponent=  2.7641544411D-01 Coefficients=  1.0000000000D+00
 D 1 1.00
     Exponent=  1.2000000000D+00 Coefficients=  1.0000000000D+00
 ****
 Centers:   1
 S 5 1.00
     Exponent=  9.1849303010D+03 Coefficients= -2.2294387756D-03
     Exponent=  1.3815105503D+03 Coefficients= -1.6683029937D-02
     Exponent=  3.1387147580D+02 Coefficients= -7.5262436116D-02
     Exponent=  8.8053870623D+01 Coefficients= -1.9376827038D-01
     Exponent=  2.7039914905D+01 Coefficients= -1.7718020803D-01
 S 3 1.00
     Exponent=  4.5648731303D+01 Coefficients= -1.0736062573D-01
     Exponent=  4.9664522326D+00 Coefficients=  6.5066293018D-01
     Exponent=  2.0116242047D+00 Coefficients=  5.9712155354D-01
 S 1 1.00
     Exponent=  3.5661077013D-01 Coefficients=  1.0000000000D+00
 S 1 1.00
     Exponent=  1.3507221477D-01 Coefficients=  1.0000000000D+00
 P 5 1.00
     Exponent=  2.6198233439D+02 Coefficients= -9.2729929822D-03
     Exponent=  6.1306894736D+01 Coefficients= -6.6547669241D-02
     Exponent=  1.9103729887D+01 Coefficients= -2.4828595903D-01
     Exponent=  6.6567720378D+00 Coefficients= -4.8703847402D-01
     Exponent=  2.3959635161D+00 Coefficients= -3.9337850312D-01
 P 1 1.00
     Exponent=  6.1776161679D-01 Coefficients=  1.0000000000D+00
 P 1 1.00
     Exponent=  1.6993376871D-01 Coefficients=  1.0000000000D+00
 D 1 1.00
     Exponent=  5.5000000000D-01 Coefficients=  1.0000000000D+00
 D 1 1.00
     Exponent=  2.9940000000D+00 Coefficients=  1.0000000000D+00
 ****
 Ernie: Thresh=  0.10000D-02 Tol=  0.10000D-05 Strict=F.
 There are   129 symmetry adapted basis functions of A   symmetry.
 Integral buffers will be    131072 words long.
 Raffenetti 2 integral format.
 Two-electron integral symmetry is turned on.
   129 basis functions,   237 primitive gaussians,   137 cartesian basis functions
    33 alpha electrons       33 beta electrons
       nuclear repulsion energy       394.8055358059 Hartrees.
 IExCor= 1009 DFT=T Ex+Corr=PBE1PBE ExCW=0 ScaHFX=  0.250000
 ScaDFX=  0.750000  0.750000  1.000000  1.000000 ScalE2=  1.000000  1.000000
 IRadAn=      0 IRanWt=     -1 IRanGd=            0 ICorTp=0
 NAtoms=   18 NActive=   18 NUniq=   18 SFac= 1.00D+00 NAtFMM=   50 NAOKFM=F Big=F
 ------------------------------------------------------------------------------
 Polarizable Continuum Model (PCM)
 =================================
 Model                : PCM.
 Atomic radii         : UFF (Universal Force Field).
 Polarization charges : Total charges.
 Charge compensation  : None.
 Solution method      : Matrix inversion.
 Cavity type          : Scaled VdW (van der Waals Surface) (Alpha=1.100).
 Cavity algorithm     : GePol (No added spheres)
                        Default sphere list used, NSphG=   18.
                        Lebedev-Laikov grids with approx.  5.0 points / Ang**2.
                        Smoothing algorithm: Karplus/York (Gamma=1.0000).
                        Polarization charges: spherical gaussians, with
                                              point-specific exponents (IZeta= 3).
                        Self-potential: point-specific (ISelfS= 7).
                        Self-field    : sphere-specific E.n sum rule (ISelfD= 2).
 1st derivatives      : Analytical E(r).r(x)/FMM algorithm (CHGder, D1EAlg=3).
                        Cavity 1st derivative terms included.
 2nd derivatives      : Analytical E(r).r(xy)/FMM algorithm (CHGder, D2EAlg=3).
                        Cavity 2nd derivative terms included.
 Solvent              : Water, Eps=  78.355300 Eps(inf)=   1.777849
 ------------------------------------------------------------------------------
 Spheres list:
 ISph  on   Nord    Re0     Alpha      Xe            Ye            Ze
    1   S      1    2.018   1.100     -1.609100      0.310691     -0.645318
    2   C      2    1.926   1.100      0.740836      0.588381      0.392534
    3   N      3    1.830   1.100      1.238716     -0.433711     -0.763889
    4   C      4    1.926   1.100      1.680714     -1.755932     -0.251808
    5   H      5    1.443   1.100      0.342654     -0.528704     -1.294615
    6   C      6    1.926   1.100      0.913945      2.051705     -0.045191
    7   O      7    1.750   1.100      0.774568      0.149686      1.513367
    8   H      8    1.443   1.100      1.959880     -0.060687     -1.391595
    9   H      9    1.443   1.100     -2.816906     -1.640707      0.231612
   10   C     10    1.926   1.100     -2.147834     -0.899978      0.626084
   11   H     11    1.443   1.100     -2.673954     -0.377191      1.428419
   12   H     12    1.443   1.100     -1.282482     -1.383686      1.088614
   13   H     13    1.443   1.100      0.577643      2.700049      0.736767
   14   H     14    1.443   1.100      0.337791      2.230154     -0.928986
   15   H     15    1.443   1.100      1.946888      2.243507     -0.248022
   16   H     16    1.443   1.100      2.597447     -1.641073      0.287925
   17   H     17    1.443   1.100      1.831982     -2.424266     -1.073604
   18   H     18    1.443   1.100      0.931139     -2.155020      0.399167
 ------------------------------------------------------------------------------
 GePol: Number of generator spheres                  =      18
 GePol: Total number of spheres                      =      18
 GePol: Number of exposed spheres                    =      18 (100.00%)
 GePol: Number of points                             =    1491
 GePol: Average weight of points                     =       0.13
 GePol: Minimum weight of points                     =   0.12D-10
 GePol: Maximum weight of points                     =    0.20577
 GePol: Number of points with low weight             =      85
 GePol: Fraction of low-weight points (<1% of avg)   =       5.70%
 GePol: Cavity surface area                          =    195.342 Ang**2
 GePol: Cavity volume                                =    192.607 Ang**3
 Leave Link  301 at Wed Apr 18 15:47:41 2012, MaxMem= 1610612736 cpu:       1.2
 (Enter /group/hpc-share/gaussian/2009B/g09/l302.exe)
 NPDir=0 NMtPBC=     1 NCelOv=     1 NCel=       1 NClECP=     1 NCelD=      1
         NCelK=      1 NCelE2=     1 NClLst=     1 CellRange=     0.0.
 One-electron integrals computed using PRISM.
 NBasis=   129 RedAO= T  NBF=   129
 NBsUse=   129 1.00D-06 NBFU=   129
 Precomputing XC quadrature grid using
 IXCGrd= 2 IRadAn=           0 IRanWt=          -1 IRanGd=           0 AccXCQ= 0.00D+00.
 NRdTot=    1129 NPtTot=      143444 NUsed=      151594 NTot=      151626
 NSgBfM=   137   137   137   137   137 NAtAll=    18    18.
 Leave Link  302 at Wed Apr 18 15:47:41 2012, MaxMem= 1610612736 cpu:       2.7
 (Enter /group/hpc-share/gaussian/2009B/g09/l303.exe)
 DipDrv:  MaxL=1.
 Leave Link  303 at Wed Apr 18 15:47:41 2012, MaxMem= 1610612736 cpu:       0.6
 (Enter /group/hpc-share/gaussian/2009B/g09/l401.exe)
 Harris functional with IExCor= 1009 diagonalized for initial guess.
 ExpMin= 1.22D-01 ExpMax= 9.18D+03 ExpMxC= 1.38D+03 IAcc=1 IRadAn=         1 AccDes= 0.00D+00
 HarFok:  IExCor= 1009 AccDes= 0.00D+00 IRadAn=         1 IDoV= 1
 ScaDFX=  1.000000  1.000000  1.000000  1.000000
 FoFCou: FMM=F IPFlag=           0 FMFlag=      100000 FMFlg1=           0
         NFxFlg=           0 DoJE=T BraDBF=F KetDBF=T FulRan=T
         Omega=  0.000000  0.000000  1.000000  0.000000  0.000000 ICntrl=     500 IOpCl=  0
         NMat0=    1 NMatS0=    1 NMatT0=    0 NMatD0=    1 NMtDS0=    0 NMtDT0=    0
         I1Cent=           4 NGrid=           0.
 Petite list used in FoFCou.
 Harris En= -686.336417651458    
 Initial guess orbital symmetries:
       Occupied  (A) (A) (A) (A) (A) (A) (A) (A) (A) (A) (A) (A)
                 (A) (A) (A) (A) (A) (A) (A) (A) (A) (A) (A) (A)
                 (A) (A) (A) (A) (A) (A) (A) (A) (A)
       Virtual   (A) (A) (A) (A) (A) (A) (A) (A) (A) (A) (A) (A)
                 (A) (A) (A) (A) (A) (A) (A) (A) (A) (A) (A) (A)
                 (A) (A) (A) (A) (A) (A) (A) (A) (A) (A) (A) (A)
                 (A) (A) (A) (A) (A) (A) (A) (A) (A) (A) (A) (A)
                 (A) (A) (A) (A) (A) (A) (A) (A) (A) (A) (A) (A)
                 (A) (A) (A) (A) (A) (A) (A) (A) (A) (A) (A) (A)
                 (A) (A) (A) (A) (A) (A) (A) (A) (A) (A) (A) (A)
                 (A) (A) (A) (A) (A) (A) (A) (A) (A) (A) (A) (A)
 The electronic state of the initial guess is 1-A.
 Leave Link  401 at Wed Apr 18 15:47:42 2012, MaxMem= 1610612736 cpu:       3.6
 (Enter /group/hpc-share/gaussian/2009B/g09/l502.exe)
 Closed shell SCF:
 Requested convergence on RMS density matrix=1.00D-08 within 128 cycles.
 Requested convergence on MAX density matrix=1.00D-06.
 Requested convergence on             energy=1.00D-06.
 No special actions if energy rises.
 Using DIIS extrapolation, IDIIS=  1040.
 Integral symmetry usage will be decided dynamically.
       151419 words used for storage of precomputed grid.
 Keep R1 ints in memory in canonical form, NReq=50535220.
 IEnd=      228022 IEndB=      228022 NGot=  1610612736 MDV=  1565735902
 LenX=  1565735902 LenY=  1565716692
 Symmetry not used in FoFDir.
 MinBra= 0 MaxBra= 2 Meth= 1.
 IRaf=       0 NMat=   1 IRICut=       1 DoRegI=T DoRafI=F ISym2E= 0 JSym2E=0.

 Cycle   1  Pass 1  IDiag  1:
 E= -686.146941136652    
 DIIS: error= 2.64D-02 at cycle   1 NSaved=   1.
 NSaved= 1 IEnMin= 1 EnMin= -686.146941136652     IErMin= 1 ErrMin= 2.64D-02
 ErrMax= 2.64D-02 EMaxC= 1.00D-01 BMatC= 1.99D-01 BMatP= 1.99D-01
 IDIUse=3 WtCom= 7.36D-01 WtEn= 2.64D-01
 Coeff-Com:  0.100D+01
 Coeff-En:   0.100D+01
 Coeff:      0.100D+01
 Gap=     0.196 Goal=   None    Shift=    0.000
 GapD=    0.196 DampG=1.000 DampE=0.500 DampFc=0.5000 IDamp=-1.
 Damping current iteration by 5.00D-01
 RMSDP=7.61D-03 MaxDP=1.70D-01              OVMax= 2.02D-01

 Cycle   2  Pass 1  IDiag  1:
 E= -686.213559970490     Delta-E=       -0.066618833838 Rises=F Damp=T
 DIIS: error= 8.87D-03 at cycle   2 NSaved=   2.
 NSaved= 2 IEnMin= 2 EnMin= -686.213559970490     IErMin= 2 ErrMin= 8.87D-03
 ErrMax= 8.87D-03 EMaxC= 1.00D-01 BMatC= 2.35D-02 BMatP= 1.99D-01
 IDIUse=3 WtCom= 9.11D-01 WtEn= 8.87D-02
 Coeff-Com:  0.177D+00 0.823D+00
 Coeff-En:   0.266D+00 0.734D+00
 Coeff:      0.185D+00 0.815D+00
 Gap=     0.180 Goal=   None    Shift=    0.000
 RMSDP=2.19D-03 MaxDP=5.47D-02 DE=-6.66D-02 OVMax= 1.59D-01

 Cycle   3  Pass 1  IDiag  1:
 E= -686.319132713835     Delta-E=       -0.105572743345 Rises=F Damp=F
 DIIS: error= 9.44D-03 at cycle   3 NSaved=   3.
 NSaved= 3 IEnMin= 3 EnMin= -686.319132713835     IErMin= 2 ErrMin= 8.87D-03
 ErrMax= 9.44D-03 EMaxC= 1.00D-01 BMatC= 2.25D-02 BMatP= 2.35D-02
 IDIUse=3 WtCom= 9.06D-01 WtEn= 9.44D-02
 Coeff-Com:  0.485D-01 0.490D+00 0.461D+00
 Coeff-En:   0.000D+00 0.000D+00 0.100D+01
 Coeff:      0.439D-01 0.444D+00 0.512D+00
 Gap=     0.188 Goal=   None    Shift=    0.000
 RMSDP=1.30D-03 MaxDP=3.93D-02 DE=-1.06D-01 OVMax= 5.03D-02

 Cycle   4  Pass 1  IDiag  1:
 E= -686.336448024531     Delta-E=       -0.017315310697 Rises=F Damp=F
 DIIS: error= 3.09D-03 at cycle   4 NSaved=   4.
 NSaved= 4 IEnMin= 4 EnMin= -686.336448024531     IErMin= 4 ErrMin= 3.09D-03
 ErrMax= 3.09D-03 EMaxC= 1.00D-01 BMatC= 2.14D-03 BMatP= 2.25D-02
 IDIUse=3 WtCom= 9.69D-01 WtEn= 3.09D-02
 Coeff-Com:  0.351D-02 0.708D-01 0.251D+00 0.674D+00
 Coeff-En:   0.000D+00 0.000D+00 0.596D-01 0.940D+00
 Coeff:      0.341D-02 0.686D-01 0.245D+00 0.683D+00
 Gap=     0.186 Goal=   None    Shift=    0.000
 RMSDP=3.45D-04 MaxDP=9.86D-03 DE=-1.73D-02 OVMax= 1.14D-02

 Cycle   5  Pass 1  IDiag  1:
 E= -686.338114354705     Delta-E=       -0.001666330174 Rises=F Damp=F
 DIIS: error= 6.04D-04 at cycle   5 NSaved=   5.
 NSaved= 5 IEnMin= 5 EnMin= -686.338114354705     IErMin= 5 ErrMin= 6.04D-04
 ErrMax= 6.04D-04 EMaxC= 1.00D-01 BMatC= 9.32D-05 BMatP= 2.14D-03
 IDIUse=3 WtCom= 9.94D-01 WtEn= 6.04D-03
 Coeff-Com: -0.466D-03 0.591D-02 0.840D-01 0.315D+00 0.596D+00
 Coeff-En:   0.000D+00 0.000D+00 0.000D+00 0.000D+00 0.100D+01
 Coeff:     -0.463D-03 0.588D-02 0.835D-01 0.313D+00 0.598D+00
 Gap=     0.187 Goal=   None    Shift=    0.000
 RMSDP=1.00D-04 MaxDP=3.23D-03 DE=-1.67D-03 OVMax= 3.82D-03

 Cycle   6  Pass 1  IDiag  1:
 E= -686.338203054904     Delta-E=       -0.000088700198 Rises=F Damp=F
 DIIS: error= 1.40D-04 at cycle   6 NSaved=   6.
 NSaved= 6 IEnMin= 6 EnMin= -686.338203054904     IErMin= 6 ErrMin= 1.40D-04
 ErrMax= 1.40D-04 EMaxC= 1.00D-01 BMatC= 3.41D-06 BMatP= 9.32D-05
 IDIUse=3 WtCom= 9.99D-01 WtEn= 1.40D-03
 Coeff-Com: -0.313D-03-0.128D-02 0.203D-01 0.869D-01 0.239D+00 0.655D+00
 Coeff-En:   0.000D+00 0.000D+00 0.000D+00 0.000D+00 0.000D+00 0.100D+01
 Coeff:     -0.313D-03-0.128D-02 0.202D-01 0.868D-01 0.239D+00 0.656D+00
 Gap=     0.187 Goal=   None    Shift=    0.000
 RMSDP=1.66D-05 MaxDP=4.96D-04 DE=-8.87D-05 OVMax= 5.77D-04

 Cycle   7  Pass 1  IDiag  1:
 E= -686.338206437280     Delta-E=       -0.000003382377 Rises=F Damp=F
 DIIS: error= 2.81D-05 at cycle   7 NSaved=   7.
 NSaved= 7 IEnMin= 7 EnMin= -686.338206437280     IErMin= 7 ErrMin= 2.81D-05
 ErrMax= 2.81D-05 EMaxC= 1.00D-01 BMatC= 1.71D-07 BMatP= 3.41D-06
 IDIUse=1 WtCom= 1.00D+00 WtEn= 0.00D+00
 Coeff-Com: -0.753D-04-0.103D-02 0.199D-02 0.103D-01 0.450D-01 0.226D+00
 Coeff-Com:  0.718D+00
 Coeff:     -0.753D-04-0.103D-02 0.199D-02 0.103D-01 0.450D-01 0.226D+00
 Coeff:      0.718D+00
 Gap=     0.187 Goal=   None    Shift=    0.000
 RMSDP=5.32D-06 MaxDP=1.07D-04 DE=-3.38D-06 OVMax= 2.27D-04

 Cycle   8  Pass 1  IDiag  1:
 E= -686.338206615590     Delta-E=       -0.000000178310 Rises=F Damp=F
 DIIS: error= 7.73D-06 at cycle   8 NSaved=   8.
 NSaved= 8 IEnMin= 8 EnMin= -686.338206615590     IErMin= 8 ErrMin= 7.73D-06
 ErrMax= 7.73D-06 EMaxC= 1.00D-01 BMatC= 1.64D-08 BMatP= 1.71D-07
 IDIUse=1 WtCom= 1.00D+00 WtEn= 0.00D+00
 Coeff-Com:  0.209D-04-0.279D-03-0.100D-02-0.437D-02-0.501D-02 0.232D-01
 Coeff-Com:  0.253D+00 0.735D+00
 Coeff:      0.209D-04-0.279D-03-0.100D-02-0.437D-02-0.501D-02 0.232D-01
 Coeff:      0.253D+00 0.735D+00
 Gap=     0.187 Goal=   None    Shift=    0.000
 RMSDP=1.88D-06 MaxDP=6.93D-05 DE=-1.78D-07 OVMax= 4.68D-05

 Cycle   9  Pass 1  IDiag  1:
 E= -686.338206633028     Delta-E=       -0.000000017438 Rises=F Damp=F
 DIIS: error= 1.84D-06 at cycle   9 NSaved=   9.
 NSaved= 9 IEnMin= 9 EnMin= -686.338206633028     IErMin= 9 ErrMin= 1.84D-06
 ErrMax= 1.84D-06 EMaxC= 1.00D-01 BMatC= 1.53D-09 BMatP= 1.64D-08
 IDIUse=1 WtCom= 1.00D+00 WtEn= 0.00D+00
 Coeff-Com:  0.130D-04-0.452D-04-0.405D-03-0.200D-02-0.387D-02-0.397D-02
 Coeff-Com:  0.533D-01 0.292D+00 0.664D+00
 Coeff:      0.130D-04-0.452D-04-0.405D-03-0.200D-02-0.387D-02-0.397D-02
 Coeff:      0.533D-01 0.292D+00 0.664D+00
 Gap=     0.187 Goal=   None    Shift=    0.000
 RMSDP=5.16D-07 MaxDP=9.41D-06 DE=-1.74D-08 OVMax= 2.75D-05

 Cycle  10  Pass 1  IDiag  1:
 E= -686.338206634517     Delta-E=       -0.000000001489 Rises=F Damp=F
 DIIS: error= 9.05D-07 at cycle  10 NSaved=  10.
 NSaved=10 IEnMin=10 EnMin= -686.338206634517     IErMin=10 ErrMin= 9.05D-07
 ErrMax= 9.05D-07 EMaxC= 1.00D-01 BMatC= 2.73D-10 BMatP= 1.53D-09
 IDIUse=1 WtCom= 1.00D+00 WtEn= 0.00D+00
 Coeff-Com:  0.416D-05 0.495D-05-0.134D-03-0.676D-03-0.174D-02-0.582D-02
 Coeff-Com: -0.534D-02 0.586D-01 0.326D+00 0.630D+00
 Coeff:      0.416D-05 0.495D-05-0.134D-03-0.676D-03-0.174D-02-0.582D-02
 Coeff:     -0.534D-02 0.586D-01 0.326D+00 0.630D+00
 Gap=     0.187 Goal=   None    Shift=    0.000
 RMSDP=1.79D-07 MaxDP=4.84D-06 DE=-1.49D-09 OVMax= 5.54D-06

 Cycle  11  Pass 1  IDiag  1:
 E= -686.338206634799     Delta-E=       -0.000000000282 Rises=F Damp=F
 DIIS: error= 2.15D-07 at cycle  11 NSaved=  11.
 NSaved=11 IEnMin=11 EnMin= -686.338206634799     IErMin=11 ErrMin= 2.15D-07
 ErrMax= 2.15D-07 EMaxC= 1.00D-01 BMatC= 9.26D-12 BMatP= 2.73D-10
 IDIUse=1 WtCom= 1.00D+00 WtEn= 0.00D+00
 Coeff-Com:  0.178D-06 0.657D-05 0.129D-04 0.441D-04 0.377D-05-0.981D-03
 Coeff-Com: -0.679D-02-0.125D-01 0.281D-01 0.190D+00 0.802D+00
 Coeff:      0.178D-06 0.657D-05 0.129D-04 0.441D-04 0.377D-05-0.981D-03
 Coeff:     -0.679D-02-0.125D-01 0.281D-01 0.190D+00 0.802D+00
 Gap=     0.187 Goal=   None    Shift=    0.000
 RMSDP=5.76D-08 MaxDP=1.22D-06 DE=-2.82D-10 OVMax= 2.89D-06

 Cycle  12  Pass 1  IDiag  1:
 E= -686.338206634813     Delta-E=       -0.000000000014 Rises=F Damp=F
 DIIS: error= 3.70D-08 at cycle  12 NSaved=  12.
 NSaved=12 IEnMin=12 EnMin= -686.338206634813     IErMin=12 ErrMin= 3.70D-08
 ErrMax= 3.70D-08 EMaxC= 1.00D-01 BMatC= 4.46D-13 BMatP= 9.26D-12
 IDIUse=1 WtCom= 1.00D+00 WtEn= 0.00D+00
 Coeff-Com:  0.889D-07 0.155D-05 0.622D-05 0.239D-04 0.335D-04-0.169D-03
 Coeff-Com: -0.183D-02-0.555D-02-0.402D-02 0.265D-01 0.215D+00 0.770D+00
 Coeff:      0.889D-07 0.155D-05 0.622D-05 0.239D-04 0.335D-04-0.169D-03
 Coeff:     -0.183D-02-0.555D-02-0.402D-02 0.265D-01 0.215D+00 0.770D+00
 Gap=     0.187 Goal=   None    Shift=    0.000
 RMSDP=1.18D-08 MaxDP=2.73D-07 DE=-1.41D-11 OVMax= 3.52D-07

 Cycle  13  Pass 1  IDiag  1:
 E= -686.338206634813     Delta-E=        0.000000000000 Rises=F Damp=F
 DIIS: error= 1.74D-08 at cycle  13 NSaved=  13.
 NSaved=13 IEnMin=12 EnMin= -686.338206634813     IErMin=13 ErrMin= 1.74D-08
 ErrMax= 1.74D-08 EMaxC= 1.00D-01 BMatC= 9.39D-14 BMatP= 4.46D-13
 IDIUse=1 WtCom= 1.00D+00 WtEn= 0.00D+00
 Coeff-Com:  0.331D-07-0.191D-06 0.279D-05 0.108D-04 0.281D-04 0.604D-04
 Coeff-Com: -0.424D-04-0.125D-02-0.484D-02-0.798D-02 0.202D-01 0.353D+00
 Coeff-Com:  0.641D+00
 Coeff:      0.331D-07-0.191D-06 0.279D-05 0.108D-04 0.281D-04 0.604D-04
 Coeff:     -0.424D-04-0.125D-02-0.484D-02-0.798D-02 0.202D-01 0.353D+00
 Coeff:      0.641D+00
 Gap=     0.187 Goal=   None    Shift=    0.000
 RMSDP=3.84D-09 MaxDP=9.84D-08 DE= 0.00D+00 OVMax= 1.75D-07

 Error on total polarization charges =  0.00762
 SCF Done:  E(RPBE1PBE) =  -686.338206635     A.U. after   13 cycles
             Convg  =    0.3842D-08             -V/T =  2.0048
 KE= 6.830399195096D+02 PE=-2.408197338995D+03 EE= 6.440136770442D+02
 Leave Link  502 at Wed Apr 18 15:47:57 2012, MaxMem= 1610612736 cpu:     117.0
 (Enter /group/hpc-share/gaussian/2009B/g09/l801.exe)
 Range of M.O.s used for correlation:     1   129
 NBasis=   129 NAE=    33 NBE=    33 NFC=     0 NFV=     0
 NROrb=    129 NOA=    33 NOB=    33 NVA=    96 NVB=    96
 Leave Link  801 at Wed Apr 18 15:47:57 2012, MaxMem= 1610612736 cpu:       0.2
 (Enter /group/hpc-share/gaussian/2009B/g09/l1101.exe)
 Using compressed storage, NAtomX=    18.
 Will process  19 centers per pass.
 Leave Link 1101 at Wed Apr 18 15:47:58 2012, MaxMem= 1610612736 cpu:       2.2
 (Enter /group/hpc-share/gaussian/2009B/g09/l1102.exe)
 Symmetrizing basis deriv contribution to polar:
 IMax=3 JMax=2 DiffMx= 0.00D+00
 Leave Link 1102 at Wed Apr 18 15:47:58 2012, MaxMem= 1610612736 cpu:       0.3
 (Enter /group/hpc-share/gaussian/2009B/g09/l1110.exe)
 Forming Gx(P) for the SCF density, NAtomX=    18.
 Integral derivatives from FoFDir/FoFCou, PRISM(SPDF).
 Do as many integral derivatives as possible in FoFDir.
 G2DrvN: MDV=    1610612488.
 G2DrvN: will do    19 centers at a time, making    1 passes doing MaxLOS=2.
 Calling FoFCou, ICntrl=  3107 FMM=F I1Cent=   0 AccDes= 0.00D+00.
 FoFCou: FMM=F IPFlag=           0 FMFlag=      100000 FMFlg1=           0
         NFxFlg=           0 DoJE=F BraDBF=F KetDBF=F FulRan=T
         Omega=  0.000000  0.000000  1.000000  0.000000  0.000000 ICntrl=    3107 IOpCl=  0
         NMat0=    1 NMatS0=    1 NMatT0=    0 NMatD0=    1 NMtDS0=    0 NMtDT0=    0
         I1Cent=           0 NGrid=           0.
 Symmetry not used in FoFCou.
 FoFDir/FoFCou used for L=0 through L=2.
 G2PCM: DoFxE=T DoFxN=T DoGrad=T DoPD/DQ/DG=FFF NFrqRd=   0 IEInf=0 DoCFld=F IF1Alg=4.
 GePol: Maximum number of non-zero 1st derivatives   =     268
 End of G2Drv Frequency-dependent properties file   721 does not exist.
 End of G2Drv Frequency-dependent properties file   722 does not exist.
 Leave Link 1110 at Wed Apr 18 15:48:18 2012, MaxMem= 1610612736 cpu:     163.3
 (Enter /group/hpc-share/gaussian/2009B/g09/l1002.exe)
 Minotr:  Closed shell wavefunction.
          IDoAtm=111111111111111111
 NEqPCM:  Using equilibrium solvation (IEInf=0, Eps=  78.3553, EpsInf=   1.7778)
          Direct CPHF calculation.
          Differentiating once with respect to nuclear coordinates.
          Requested convergence is 1.0D-06 RMS, and 1.0D-05 maximum.
          Secondary convergence is 1.0D-12 RMS, and 1.0D-12 maximum.
          NewPWx=T KeepS1=F KeepF1=F KeepIn=T MapXYZ=F SortEE=F KeepMc=T.
          MDV=    1610612552 using IRadAn=       2.
 Generate precomputed XC quadrature information.
          Keep R1 ints in memory in canonical form, NReq=45509524.
 Symmetry not used in FoFDir.
 MinBra= 0 MaxBra= 2 Meth= 1.
 IRaf=       0 NMat=   1 IRICut=       1 DoRegI=T DoRafI=F ISym2E= 0 JSym2E=0.
          Solving linear equations simultaneously, MaxMat=       0.
          There are    57 degrees of freedom in the 1st order CPHF.  IDoFFX=5.
     51 vectors produced by pass  0 Test12= 5.56D-11 1.75D-07 XBig12= 1.81D-01 2.02D-01.
 AX will form    51 AO Fock derivatives at one time.
     51 vectors produced by pass  1 Test12= 5.56D-11 1.75D-07 XBig12= 7.61D-02 1.06D-01.
     51 vectors produced by pass  2 Test12= 5.56D-11 1.75D-07 XBig12= 5.52D-04 4.85D-03.
     51 vectors produced by pass  3 Test12= 5.56D-11 1.75D-07 XBig12= 8.31D-07 1.12D-04.
     24 vectors produced by pass  4 Test12= 5.56D-11 1.75D-07 XBig12= 1.24D-09 3.72D-06.
 Inverted reduced A of dimension   228 with in-core refinement.
 End of Minotr Frequency-dependent properties file   721 does not exist.
 End of Minotr Frequency-dependent properties file   722 does not exist.
 Leave Link 1002 at Wed Apr 18 15:48:34 2012, MaxMem= 1610612736 cpu:     127.0
 (Enter /group/hpc-share/gaussian/2009B/g09/l601.exe)
 Copying SCF densities to generalized density rwf, IOpCl= 0 IROHF=0.

 **********************************************************************

            Population analysis using the SCF density.

 **********************************************************************

 Orbital symmetries:
       Occupied  (A) (A) (A) (A) (A) (A) (A) (A) (A) (A) (A) (A)
                 (A) (A) (A) (A) (A) (A) (A) (A) (A) (A) (A) (A)
                 (A) (A) (A) (A) (A) (A) (A) (A) (A)
       Virtual   (A) (A) (A) (A) (A) (A) (A) (A) (A) (A) (A) (A)
                 (A) (A) (A) (A) (A) (A) (A) (A) (A) (A) (A) (A)
                 (A) (A) (A) (A) (A) (A) (A) (A) (A) (A) (A) (A)
                 (A) (A) (A) (A) (A) (A) (A) (A) (A) (A) (A) (A)
                 (A) (A) (A) (A) (A) (A) (A) (A) (A) (A) (A) (A)
                 (A) (A) (A) (A) (A) (A) (A) (A) (A) (A) (A) (A)
                 (A) (A) (A) (A) (A) (A) (A) (A) (A) (A) (A) (A)
                 (A) (A) (A) (A) (A) (A) (A) (A) (A) (A) (A) (A)
 The electronic state is 1-A.
 Alpha  occ. eigenvalues --  -88.93068 -19.21317 -14.48110 -10.37600 -10.27002
 Alpha  occ. eigenvalues --  -10.23178 -10.22230  -7.92866  -5.87132  -5.86576
 Alpha  occ. eigenvalues --   -5.86343  -1.08555  -0.98468  -0.77665  -0.73870
 Alpha  occ. eigenvalues --   -0.72436  -0.61739  -0.59191  -0.57273  -0.52482
 Alpha  occ. eigenvalues --   -0.50414  -0.46212  -0.45361  -0.43980  -0.42993
 Alpha  occ. eigenvalues --   -0.41877  -0.40872  -0.40714  -0.38230  -0.32686
 Alpha  occ. eigenvalues --   -0.30236  -0.20868  -0.20176
 Alpha virt. eigenvalues --   -0.01484   0.05369   0.07437   0.10155   0.10931
 Alpha virt. eigenvalues --    0.11659   0.12245   0.14075   0.14513   0.15432
 Alpha virt. eigenvalues --    0.15596   0.16831   0.17626   0.18271   0.23443
 Alpha virt. eigenvalues --    0.25095   0.27031   0.39200   0.41653   0.43730
 Alpha virt. eigenvalues --    0.44562   0.45062   0.47709   0.49960   0.51150
 Alpha virt. eigenvalues --    0.54515   0.58101   0.59384   0.59921   0.61609
 Alpha virt. eigenvalues --    0.64380   0.67169   0.69207   0.70049   0.70943
 Alpha virt. eigenvalues --    0.71132   0.72183   0.72437   0.72678   0.74302
 Alpha virt. eigenvalues --    0.74794   0.75263   0.76338   0.77850   0.78597
 Alpha virt. eigenvalues --    0.81333   0.82900   0.84449   0.85707   0.88087
 Alpha virt. eigenvalues --    0.90968   0.96543   0.98599   1.02012   1.08917
 Alpha virt. eigenvalues --    1.13380   1.15892   1.18910   1.23446   1.34599
 Alpha virt. eigenvalues --    1.47966   1.49488   1.53669   1.64071   1.73684
 Alpha virt. eigenvalues --    1.74611   1.78474   1.79445   1.87866   1.93872
 Alpha virt. eigenvalues --    1.95433   2.01261   2.09504   2.11611   2.12899
 Alpha virt. eigenvalues --    2.14971   2.17805   2.19406   2.21597   2.33333
 Alpha virt. eigenvalues --    2.37124   2.41596   2.52185   2.59356   2.64170
 Alpha virt. eigenvalues --    2.71404   2.73982   2.90215   3.18061   3.31962
 Alpha virt. eigenvalues --    3.61254   4.71681   4.74137   4.75451   4.78873
 Alpha virt. eigenvalues --    4.93271
          Condensed to atoms (all electrons):
              1          2          3          4          5          6
     1  S   16.293771   0.178416  -0.099569   0.002414   0.105816  -0.068896
     2  C    0.178416   4.679771   0.064641  -0.016940  -0.017582   0.377113
     3  N   -0.099569   0.064641   6.902318   0.269600   0.212667  -0.084074
     4  C    0.002414  -0.016940   0.269600   4.789697  -0.009438   0.005171
     5  H    0.105816  -0.017582   0.212667  -0.009438   0.428135   0.002333
     6  C   -0.068896   0.377113  -0.084074   0.005171   0.002333   5.016473
     7  O   -0.028381   0.665952  -0.089640   0.015496   0.002468  -0.059370
     8  H    0.004704  -0.003191   0.291294  -0.015084  -0.002470   0.000489
     9  H   -0.025379   0.001310  -0.000051   0.000047  -0.000946  -0.000056
    10  C    0.235255  -0.008978   0.002718  -0.001966  -0.004842   0.001660
    11  H   -0.036113  -0.000475  -0.000158   0.000054   0.000990  -0.000149
    12  H   -0.042859  -0.009600   0.002894   0.000836  -0.002569   0.001830
    13  H    0.002233  -0.007372   0.005910  -0.000246  -0.000498   0.362718
    14  H    0.009747  -0.006455   0.004749  -0.000117   0.000352   0.355357
    15  H    0.004830  -0.008938  -0.000994  -0.000184  -0.001315   0.344938
    16  H   -0.000092  -0.000943  -0.020315   0.399320   0.003094   0.000149
    17  H   -0.000308   0.004200  -0.013984   0.390570  -0.003668  -0.000093
    18  H    0.002989  -0.002499  -0.023167   0.395330  -0.000320   0.000501
              7          8          9         10         11         12
     1  S   -0.028381   0.004704  -0.025379   0.235255  -0.036113  -0.042859
     2  C    0.665952  -0.003191   0.001310  -0.008978  -0.000475  -0.009600
     3  N   -0.089640   0.291294  -0.000051   0.002718  -0.000158   0.002894
     4  C    0.015496  -0.015084   0.000047  -0.001966   0.000054   0.000836
     5  H    0.002468  -0.002470  -0.000946  -0.004842   0.000990  -0.002569
     6  C   -0.059370   0.000489  -0.000056   0.001660  -0.000149   0.001830
     7  O    7.723719   0.001218   0.000029  -0.003239   0.000455   0.016582
     8  H    0.001218   0.396450   0.000009  -0.000069   0.000005  -0.000187
     9  H    0.000029   0.000009   0.544671   0.385825  -0.025570  -0.022183
    10  C   -0.003239  -0.000069   0.385825   5.070348   0.383252   0.364362
    11  H    0.000455   0.000005  -0.025570   0.383252   0.564579  -0.023972
    12  H    0.016582  -0.000187  -0.022183   0.364362  -0.023972   0.563923
    13  H    0.004395  -0.000117   0.000002  -0.000091   0.000007  -0.000025
    14  H    0.002452  -0.000788   0.000003  -0.000338  -0.000004  -0.000044
    15  H    0.000596   0.003930   0.000004  -0.000074  -0.000004  -0.000072
    16  H    0.001287  -0.004550  -0.000002   0.000077  -0.000005  -0.000010
    17  H    0.000836  -0.002604  -0.000001   0.000002  -0.000002   0.000044
    18  H    0.002910   0.004663  -0.000049   0.001669  -0.000004   0.004793
             13         14         15         16         17         18
     1  S    0.002233   0.009747   0.004830  -0.000092  -0.000308   0.002989
     2  C   -0.007372  -0.006455  -0.008938  -0.000943   0.004200  -0.002499
     3  N    0.005910   0.004749  -0.000994  -0.020315  -0.013984  -0.023167
     4  C   -0.000246  -0.000117  -0.000184   0.399320   0.390570   0.395330
     5  H   -0.000498   0.000352  -0.001315   0.003094  -0.003668  -0.000320
     6  C    0.362718   0.355357   0.344938   0.000149  -0.000093   0.000501
     7  O    0.004395   0.002452   0.000596   0.001287   0.000836   0.002910
     8  H   -0.000117  -0.000788   0.003930  -0.004550  -0.002604   0.004663
     9  H    0.000002   0.000003   0.000004  -0.000002  -0.000001  -0.000049
    10  C   -0.000091  -0.000338  -0.000074   0.000077   0.000002   0.001669
    11  H    0.000007  -0.000004  -0.000004  -0.000005  -0.000002  -0.000004
    12  H   -0.000025  -0.000044  -0.000072  -0.000010   0.000044   0.004793
    13  H    0.501658  -0.010019  -0.010523  -0.000019   0.000003  -0.000007
    14  H   -0.010019   0.512116  -0.016067   0.000005  -0.000006  -0.000056
    15  H   -0.010523  -0.016067   0.528603   0.000032  -0.000031   0.000005
    16  H   -0.000019   0.000005   0.000032   0.485610  -0.017257  -0.015426
    17  H    0.000003  -0.000006  -0.000031  -0.017257   0.485058  -0.015895
    18  H   -0.000007  -0.000056   0.000005  -0.015426  -0.015895   0.467077
 Mulliken atomic charges:
              1
     1  S   -0.538578
     2  C    0.111570
     3  N   -0.424839
     4  C   -0.224560
     5  H    0.287793
     6  C   -0.256094
     7  O   -0.257763
     8  H    0.326297
     9  H    0.142337
    10  C   -0.425569
    11  H    0.137113
    12  H    0.146257
    13  H    0.151990
    14  H    0.149113
    15  H    0.155265
    16  H    0.169045
    17  H    0.173136
    18  H    0.177487
 Sum of Mulliken atomic charges =   0.00000
 Mulliken charges with hydrogens summed into heavy atoms:
              1
     1  S   -0.538578
     2  C    0.111570
     3  N    0.189251
     4  C    0.295108
     6  C    0.200273
     7  O   -0.257763
    10  C    0.000138
 Sum of Mulliken charges with hydrogens summed into heavy atoms =   0.00000
 APT atomic charges:
              1
     1  S   -0.493164
     2  C   -0.536259
     3  N   -0.649142
     4  C   -1.074208
     5  H    0.271465
     6  C   -0.840727
     7  O   -0.001952
     8  H    0.714405
     9  H    0.576938
    10  C   -1.165325
    11  H    0.452713
    12  H    0.115079
    13  H    0.466702
    14  H    0.274304
    15  H    0.500025
    16  H    0.543444
    17  H    0.619779
    18  H    0.225924
 Sum of APT charges=   0.00000
 APT Atomic charges with hydrogens summed into heavy atoms:
              1
     1  S   -0.493164
     2  C   -0.536259
     3  N    0.336727
     4  C    0.314939
     5  H    0.000000
     6  C    0.400304
     7  O   -0.001952
     8  H    0.000000
     9  H    0.000000
    10  C   -0.020595
    11  H    0.000000
    12  H    0.000000
    13  H    0.000000
    14  H    0.000000
    15  H    0.000000
    16  H    0.000000
    17  H    0.000000
    18  H    0.000000
 Sum of APT charges=   0.00000
 Electronic spatial extent (au):  <R**2>=           1103.1062
 Charge=              0.0000 electrons
 Dipole moment (field-independent basis, Debye):
    X=              8.2541    Y=             -2.0668    Z=             -2.8517  Tot=              8.9740
 Quadrupole moment (field-independent basis, Debye-Ang):
   XX=            -50.3880   YY=            -45.3837   ZZ=            -54.7313
   XY=              1.0249   XZ=            -10.1842   YZ=              1.1941
 Traceless Quadrupole moment (field-independent basis, Debye-Ang):
   XX=             -0.2203   YY=              4.7840   ZZ=             -4.5636
   XY=              1.0249   XZ=            -10.1842   YZ=              1.1941
 Octapole moment (field-independent basis, Debye-Ang**2):
  XXX=             44.8480  YYY=             -4.9438  ZZZ=             -8.6010  XYY=             15.4972
  XXY=            -11.5208  XXZ=              0.1012  XZZ=             10.7721  YZZ=             -1.6042
  YYZ=              0.0202  XYZ=              0.1705
 Hexadecapole moment (field-independent basis, Debye-Ang**3):
 XXXX=           -730.6104 YYYY=           -442.3841 ZZZZ=           -246.7260 XXXY=              4.2948
 XXXZ=            -33.7676 YYYX=             -8.4983 YYYZ=             11.3412 ZZZX=            -24.0802
 ZZZY=              3.8183 XXYY=           -191.1711 XXZZ=           -163.6492 YYZZ=           -112.8175
 XXYZ=              5.8379 YYXZ=             -3.9753 ZZXY=             -5.3128
 N-N= 3.948055358059D+02 E-N=-2.408197338863D+03  KE= 6.830399195096D+02
  Exact polarizability:   0.000   0.000   0.000   0.000   0.000   0.000
 Approx polarizability: 133.065   5.547  90.006  16.611  -6.821 110.554
 No NMR shielding tensors so no spin-rotation constants.
 Leave Link  601 at Wed Apr 18 15:48:35 2012, MaxMem= 1610612736 cpu:       1.5
 (Enter /group/hpc-share/gaussian/2009B/g09/l607.exe)
 ******************************Gaussian NBO Version 3.1******************************
             N A T U R A L   A T O M I C   O R B I T A L   A N D
          N A T U R A L   B O N D   O R B I T A L   A N A L Y S I S
 ******************************Gaussian NBO Version 3.1******************************

       /RESON  / : Allow strongly delocalized NBO set
       /ARCHIVE/ : Write the archive file to LFN 47
       /FILE   / : Set to MODEL                                               

 Analyzing the SCF density

 Job title:                                                                 

 Storage needed:     51042 in NPA,     67298 in NBO (1610610936 available)


 NATURAL POPULATIONS:  Natural atomic orbital occupancies 
                                                          
   NAO  Atom  No  lang   Type(AO)    Occupancy      Energy
 ----------------------------------------------------------
     1    S    1  S      Cor( 1S)     2.00000     -88.29842
     2    S    1  S      Cor( 2S)     1.99971      -8.36669
     3    S    1  S      Val( 3S)     1.79865      -0.68890
     4    S    1  S      Ryd( 4S)     0.00433       0.68448
     5    S    1  px     Cor( 2p)     1.99995      -5.86250
     6    S    1  px     Val( 3p)     1.62387      -0.17989
     7    S    1  px     Ryd( 4p)     0.00219       0.94842
     8    S    1  py     Cor( 2p)     1.99995      -5.86269
     9    S    1  py     Val( 3p)     1.55712      -0.17361
    10    S    1  py     Ryd( 4p)     0.00212       0.88711
    11    S    1  pz     Cor( 2p)     1.99994      -5.86327
    12    S    1  pz     Val( 3p)     1.49444      -0.16951
    13    S    1  pz     Ryd( 4p)     0.00182       0.86776
    14    S    1  dxy    Ryd( 3d)     0.00172       0.79203
    15    S    1  dxy    Ryd( 4d)     0.00000       4.74036
    16    S    1  dxz    Ryd( 3d)     0.00185       0.84685
    17    S    1  dxz    Ryd( 4d)     0.00000       4.77039
    18    S    1  dyz    Ryd( 3d)     0.00457       0.91634
    19    S    1  dyz    Ryd( 4d)     0.00001       4.82612
    20    S    1  dx2y2  Ryd( 3d)     0.00162       0.85313
    21    S    1  dx2y2  Ryd( 4d)     0.00000       4.77288
    22    S    1  dz2    Ryd( 3d)     0.00161       0.79301
    23    S    1  dz2    Ryd( 4d)     0.00001       4.73924

    24    C    2  S      Cor( 1S)     1.99936     -10.27671
    25    C    2  S      Val( 2S)     0.84469      -0.21628
    26    C    2  S      Ryd( 3S)     0.01110       0.61286
    27    C    2  px     Val( 2p)     0.82599      -0.14019
    28    C    2  px     Ryd( 3p)     0.00588       0.62844
    29    C    2  py     Val( 2p)     0.89489      -0.08204
    30    C    2  py     Ryd( 3p)     0.00879       0.72933
    31    C    2  pz     Val( 2p)     0.70933      -0.02384
    32    C    2  pz     Ryd( 3p)     0.02360       0.63730
    33    C    2  dxy    Ryd( 3d)     0.00116       1.89888
    34    C    2  dxz    Ryd( 3d)     0.00349       1.96909
    35    C    2  dyz    Ryd( 3d)     0.00393       2.24021
    36    C    2  dx2y2  Ryd( 3d)     0.00120       2.08669
    37    C    2  dz2    Ryd( 3d)     0.00295       2.27116

    38    N    3  S      Cor( 1S)     1.99938     -14.32937
    39    N    3  S      Val( 2S)     1.36877      -0.65522
    40    N    3  S      Ryd( 3S)     0.00219       1.22116
    41    N    3  px     Val( 2p)     1.48176      -0.32115
    42    N    3  px     Ryd( 3p)     0.00064       0.96982
    43    N    3  py     Val( 2p)     1.37881      -0.30891
    44    N    3  py     Ryd( 3p)     0.00248       1.00849
    45    N    3  pz     Val( 2p)     1.45705      -0.31438
    46    N    3  pz     Ryd( 3p)     0.00134       0.90782
    47    N    3  dxy    Ryd( 3d)     0.00055       2.28800
    48    N    3  dxz    Ryd( 3d)     0.00114       2.49660
    49    N    3  dyz    Ryd( 3d)     0.00067       2.45475
    50    N    3  dx2y2  Ryd( 3d)     0.00072       2.41761
    51    N    3  dz2    Ryd( 3d)     0.00029       2.21058

    52    C    4  S      Cor( 1S)     1.99933     -10.15770
    53    C    4  S      Val( 2S)     1.07239      -0.25370
    54    C    4  S      Ryd( 3S)     0.00093       0.81906
    55    C    4  px     Val( 2p)     1.20048      -0.09900
    56    C    4  px     Ryd( 3p)     0.00204       0.55089
    57    C    4  py     Val( 2p)     0.89631      -0.08181
    58    C    4  py     Ryd( 3p)     0.00279       0.53584
    59    C    4  pz     Val( 2p)     1.18624      -0.09796
    60    C    4  pz     Ryd( 3p)     0.00348       0.58566
    61    C    4  dxy    Ryd( 3d)     0.00066       1.91120
    62    C    4  dxz    Ryd( 3d)     0.00085       2.08536
    63    C    4  dyz    Ryd( 3d)     0.00105       2.08975
    64    C    4  dx2y2  Ryd( 3d)     0.00100       2.03725
    65    C    4  dz2    Ryd( 3d)     0.00044       1.84287

    66    H    5  S      Val( 1S)     0.53815       0.06035
    67    H    5  S      Ryd( 2S)     0.01004       0.49315

    68    C    6  S      Cor( 1S)     1.99911     -10.10825
    69    C    6  S      Val( 2S)     1.09983      -0.24952
    70    C    6  S      Ryd( 3S)     0.00068       0.84650
    71    C    6  px     Val( 2p)     1.22755      -0.08442
    72    C    6  px     Ryd( 3p)     0.00118       0.60007
    73    C    6  py     Val( 2p)     1.09542      -0.09838
    74    C    6  py     Ryd( 3p)     0.00144       0.51286
    75    C    6  pz     Val( 2p)     1.24021      -0.08860
    76    C    6  pz     Ryd( 3p)     0.00152       0.59537
    77    C    6  dxy    Ryd( 3d)     0.00026       1.84037
    78    C    6  dxz    Ryd( 3d)     0.00050       2.04561
    79    C    6  dyz    Ryd( 3d)     0.00054       2.07093
    80    C    6  dx2y2  Ryd( 3d)     0.00091       2.16647
    81    C    6  dz2    Ryd( 3d)     0.00059       2.01270

    82    O    7  S      Cor( 1S)     1.99967     -18.94031
    83    O    7  S      Val( 2S)     1.67248      -0.90832
    84    O    7  S      Ryd( 3S)     0.00097       1.40114
    85    O    7  px     Val( 2p)     1.48635      -0.27045
    86    O    7  px     Ryd( 3p)     0.00117       1.12792
    87    O    7  py     Val( 2p)     1.77163      -0.29547
    88    O    7  py     Ryd( 3p)     0.00173       1.18740
    89    O    7  pz     Val( 2p)     1.67009      -0.36120
    90    O    7  pz     Ryd( 3p)     0.00077       1.04086
    91    O    7  dxy    Ryd( 3d)     0.00025       2.68606
    92    O    7  dxz    Ryd( 3d)     0.00175       2.86113
    93    O    7  dyz    Ryd( 3d)     0.00145       3.08412
    94    O    7  dx2y2  Ryd( 3d)     0.00020       2.69868
    95    O    7  dz2    Ryd( 3d)     0.00158       3.27721

    96    H    8  S      Val( 1S)     0.55799       0.08605
    97    H    8  S      Ryd( 2S)     0.00305       0.41352

    98    H    9  S      Val( 1S)     0.78858       0.10995
    99    H    9  S      Ryd( 2S)     0.00120       0.33391

   100    C   10  S      Cor( 1S)     1.99932     -10.11845
   101    C   10  S      Val( 2S)     1.15322      -0.27420
   102    C   10  S      Ryd( 3S)     0.00021       0.80252
   103    C   10  px     Val( 2p)     1.22682      -0.07642
   104    C   10  px     Ryd( 3p)     0.00047       0.59945
   105    C   10  py     Val( 2p)     1.16876      -0.09368
   106    C   10  py     Ryd( 3p)     0.00059       0.59222
   107    C   10  pz     Val( 2p)     1.15611      -0.09875
   108    C   10  pz     Ryd( 3p)     0.00054       0.57206
   109    C   10  dxy    Ryd( 3d)     0.00107       2.10646
   110    C   10  dxz    Ryd( 3d)     0.00100       2.01989
   111    C   10  dyz    Ryd( 3d)     0.00143       2.09629
   112    C   10  dx2y2  Ryd( 3d)     0.00046       1.79142
   113    C   10  dz2    Ryd( 3d)     0.00069       1.79259

   114    H   11  S      Val( 1S)     0.78875       0.09732
   115    H   11  S      Ryd( 2S)     0.00169       0.34801

   116    H   12  S      Val( 1S)     0.79034       0.09558
   117    H   12  S      Ryd( 2S)     0.00338       0.45779

   118    H   13  S      Val( 1S)     0.75889       0.09872
   119    H   13  S      Ryd( 2S)     0.00167       0.34753

   120    H   14  S      Val( 1S)     0.76183       0.09467
   121    H   14  S      Ryd( 2S)     0.00112       0.38174

   122    H   15  S      Val( 1S)     0.77149       0.08757
   123    H   15  S      Ryd( 2S)     0.00242       0.35891

   124    H   16  S      Val( 1S)     0.77882       0.08238
   125    H   16  S      Ryd( 2S)     0.00110       0.33623

   126    H   17  S      Val( 1S)     0.77461       0.08425
   127    H   17  S      Ryd( 2S)     0.00084       0.33074

   128    H   18  S      Val( 1S)     0.77630       0.08478
   129    H   18  S      Ryd( 2S)     0.00160       0.41204


 Summary of Natural Population Analysis:                  
                                                          
                                       Natural Population 
                Natural  -----------------------------------------------
    Atom  No    Charge         Core      Valence    Rydberg      Total
 -----------------------------------------------------------------------
      S    1   -0.49550      9.99956     6.47409    0.02186    16.49550
      C    2    0.66364      1.99936     3.27491    0.06209     5.33636
      N    3   -0.69581      1.99938     5.68638    0.01004     7.69581
      C    4   -0.36799      1.99933     4.35542    0.01324     6.36799
      H    5    0.45181      0.00000     0.53815    0.01004     0.54819
      C    6   -0.66972      1.99911     4.66300    0.00761     6.66972
      O    7   -0.61008      1.99967     6.60055    0.00987     8.61008
      H    8    0.43896      0.00000     0.55799    0.00305     0.56104
      H    9    0.21022      0.00000     0.78858    0.00120     0.78978
      C   10   -0.71069      1.99932     4.70491    0.00645     6.71069
      H   11    0.20956      0.00000     0.78875    0.00169     0.79044
[...]
 182925,0.1620369,-0.1977746,1.0016552,0.2754047,-0.0304121,0.5028978,0
 .3077362,-0.3267032,-0.0281283,0.1718363,-0.1417047,-0.2731667,-0.0319
 026,0.0032891,-0.0324162,-0.1487036,-0.7819653,-0.0382116,-0.0431769,0
 .2194805,-0.5498201,0.3575083,-0.6884409,-0.3360048,-1.7401894,0.24729
 08,0.0165967,0.0645717,0.0027661,0.2308699,-0.0345748,0.0531316,-0.062
 6935,0.20865,-0.1923913,-0.073279,0.0950091,-0.0454485,0.0062187,0.038
 6257,0.1169527,0.1050935,0.0206297,0.0718522,0.1010589,-0.0471859,0.08
 79256,0.1661559,-0.102816,-0.0402362,-0.1402336,0.187773,0.0663153,-0.
 0183891,0.030312,-0.0202852,-0.2697581,0.0344211,0.0470117,0.0783332,0
 .0557927,0.0095477,-0.0694701,-0.1050757,-0.0737336,0.0169869,-0.05999
 16,-0.0228933,0.0670756,-0.1425362,0.0528693,0.0526874,0.024432,0.0692
 606,0.0323782,0.0093955,0.0279668,0.0366965,0.0946187,0.0461763,0.0164
 801,-0.0952905,0.0114285,0.1147854,0.0078659,-0.0113471,0.0367484,0.00
 35344,-0.0326994,-0.1517338,-0.0375973,-0.125838,-0.0435739,-0.0838302
 ,0.0299033,-0.0386713,0.0746398,0.0228112,-0.0396252,-0.0443499,-0.027
 7607,0.081922,-0.0560873,0.0255631,-0.0945806,0.0168295,0.0101695,0.08
 72443,0.0176435,0.0789039,0.0849862,-0.006518,-0.0210693,0.0168805,0.0
 346981,0.1090001,-0.0021643,0.0160617,-0.0472016,0.0176623,0.0390736,0
 .0457676,-0.0201712,0.0814597\Polar=91.729992,15.7089293,111.6116455,4
 .422502,9.6271338,95.2162217\PG=C01 [X(C4H11N1O1S1)]\NImag=1\\0.047811
 45,0.03507784,0.11786521,-0.05183327,-0.06665406,0.15354269,-0.0011849
 2,0.01284210,0.01553851,0.41104816,0.02033472,0.00172692,0.02427678,-0
 .00511096,0.35163780,0.01592304,0.01500359,0.02074659,-0.12440392,-0.3
 5955353,0.82275744,0.01250133,-0.00789276,-0.00248118,-0.09123384,-0.0
 3980801,0.02761333,0.42551812,0.00651518,-0.03651858,-0.02411845,0.005
 78016,-0.06718849,-0.00248898,0.08173575,0.62547809,0.00623831,-0.0229
 5102,0.00057015,0.02851053,-0.01594488,-0.08999262,-0.08477162,-0.0632
 5265,0.57572461,0.00077214,-0.00421967,-0.00086264,-0.02724125,0.01222
 491,0.02028980,-0.12881572,0.00362779,0.05411075,0.58065970,-0.0008016
 7,-0.00121242,0.00006629,0.01057956,-0.00137547,-0.01523327,0.01468147
 ,-0.10607748,-0.01742779,0.01419016,0.63472259,-0.00094682,0.00220592,
 0.00226650,0.00948724,-0.01605867,0.01613249,0.05383557,-0.00340900,-0
 .18044806,0.07055604,-0.02113661,0.54233836,-0.01086963,0.00853408,0.0
 0445624,-0.02530330,-0.00321299,-0.02192890,-0.09629904,-0.07138619,-0
 .06268297,0.01410556,0.01396860,0.01539832,0.12184496,-0.01217841,0.00
 656172,0.00008902,-0.00016438,0.03767191,0.02230780,-0.03783032,-0.097
 23086,-0.04479210,0.00913458,-0.00041214,-0.00558628,0.05479164,0.0788
 8290,-0.00257492,0.00441931,-0.00939304,-0.01928307,0.01762405,0.00014
 878,-0.04461663,-0.06665900,-0.13169817,-0.00513800,-0.01279778,-0.019
 37729,0.06120253,0.04671624,0.14519563,-0.00441079,-0.00427934,-0.0008
 5659,-0.17004383,-0.01192098,0.07267406,-0.02480533,0.00243653,0.01445
 606,-0.00183712,0.00075777,-0.00372182,0.00025128,0.00017005,0.0007010
 1,0.53151686,-0.00827806,-0.00568031,-0.00366016,-0.01828718,-0.074890
 05,0.03178562,0.02917142,0.00528211,-0.00820346,0.00314431,-0.00096032
 ,0.00326948,0.00079085,-0.00597588,-0.00269077,-0.05317147,0.56481691,
 -0.00442936,-0.00281128,-0.00303437,0.07178734,0.01955780,-0.13163735,
 -0.00045028,0.00262029,0.00826913,-0.00145021,0.00110483,-0.00080130,0
 .00091291,-0.00232807,-0.00037242,0.03347173,-0.01157126,0.58620125,-0
 .00237999,-0.00493063,-0.00664269,-0.09627860,0.02169556,-0.00662336,-
 0.00085486,0.03080241,-0.03767040,0.00067180,-0.00121845,-0.00166307,0
 .00009705,0.00094188,0.00080967,0.01245138,-0.01375100,0.03018911,0.09
 471392,-0.00380162,0.00176398,-0.00045634,0.00848601,-0.22729746,0.284
 71478,0.03145651,-0.01832291,0.04219493,-0.00449004,0.00106791,0.00400
 271,0.00055903,-0.00675195,-0.00200133,-0.00240513,0.00546198,0.022917
 06,-0.03678107,0.23800910,-0.01508100,-0.01187280,-0.02764019,0.016757
 52,0.31404456,-0.60767712,-0.02957846,0.03769664,-0.01648405,0.0045862
 6,-0.00093802,-0.00452115,0.00243848,-0.00745125,-0.00282624,0.0032928
 6,0.01650534,-0.03494414,0.02503327,-0.34406173,0.68598983,0.00123080,
 -0.00018455,0.00045436,0.01566827,0.02017525,-0.01498341,-0.07798690,-
 0.07169655,0.04421056,-0.00627225,-0.01836898,0.00927401,-0.00330242,-
 0.01062997,0.01166026,0.00019055,-0.00080796,0.00031168,-0.00725268,0.
 00325657,-0.00313411,0.08032690,0.00020085,-0.00111819,-0.00249269,-0.
 00318233,-0.01020805,0.00680305,-0.07616423,-0.31158708,0.13991476,0.0
 0309938,0.01250052,-0.00584985,-0.00240550,-0.01334821,0.00875928,-0.0
 0021044,0.00200135,0.00044434,0.00113022,-0.00018286,-0.00122983,0.075
 56842,0.32077647,0.00079024,-0.00277495,-0.00289722,-0.00037104,0.0071
 3224,-0.00413052,0.04453734,0.13078586,-0.12769604,0.00756122,0.024176
 17,-0.01193326,-0.00340399,-0.01471287,0.01739159,0.00153021,-0.001265
 31,0.00071513,-0.00184970,0.00110713,-0.00037457,-0.05064602,-0.143342
 94,0.13049529,-0.00042432,-0.00379178,0.00318663,0.00044227,0.00055007
 ,0.00111312,-0.00049174,-0.00074784,-0.00044268,-0.00019565,-0.0000684
 2,0.00026683,0.00052819,0.00097615,0.00044568,-0.00015248,-0.00035952,
 -0.00004729,-0.00000770,-0.00006609,-0.00056860,0.00003324,0.00000952,
 -0.00005824,0.32368010,-0.01519185,-0.00157753,0.00619311,0.00003895,0
 .00052495,0.00221457,-0.00006467,-0.00021768,0.00008834,-0.00003506,-0
 .00008275,0.00017286,-0.00002933,0.00018521,0.00005213,-0.00020932,-0.
 00063739,-0.00016554,0.00018813,0.00052722,-0.00109667,0.00002786,-0.0
 0002069,-0.00005020,-0.03460248,0.05003909,0.01914468,0.00486874,-0.00
 869611,-0.00057743,-0.00069402,-0.00219316,0.00037068,0.00087394,0.000
 42198,0.00014926,-0.00001965,-0.00013569,-0.00045851,-0.00140569,-0.00
 025236,0.00025731,0.00054080,0.00011723,0.00027042,-0.00047054,0.00120
 892,0.00003991,0.00001756,0.00007363,-0.04010463,0.00321401,0.05046439
 ,-0.04723225,-0.02107820,0.03205163,-0.00330422,-0.00398615,-0.0008216
 1,-0.00017236,0.00138099,0.00144120,0.00031068,0.00001539,-0.00007112,
 0.00091375,-0.00051058,-0.00284813,-0.00065274,-0.00106870,0.00026318,
 0.00071256,-0.00046881,0.00292573,-0.00028558,0.00005659,0.00002823,-0
 .30772239,0.03034482,0.03964133,0.52353553,-0.02083298,-0.07196769,0.0
 4983754,-0.00370461,-0.00445594,-0.00235625,0.00175995,0.00085529,-0.0
 0364763,-0.00012082,-0.00057885,-0.00090357,-0.00248424,-0.00154766,0.
 00505856,-0.00028555,0.00011773,0.00046541,0.00030163,-0.00109704,0.00
 422267,0.00000618,0.00048903,0.00066690,0.03517626,-0.04845792,-0.0105
 2426,-0.02597735,0.48936366,0.03459061,0.05230380,-0.10540322,0.000411
 90,-0.00059291,-0.00162517,-0.00114923,-0.00241947,-0.00351506,-0.0010
 3751,-0.00027063,0.00028984,-0.00036243,0.00513330,0.00374097,-0.00059
 726,-0.00046978,0.00033558,-0.00286055,-0.00402787,0.00088901,-0.00024
 569,0.00017932,0.00005019,0.03389150,-0.00867452,-0.04631789,0.0332118
 1,0.07210368,0.42153126,0.00167207,-0.01014083,0.00036588,0.00010330,0
 .00043359,0.00088514,0.00051909,-0.00067690,-0.00055783,-0.00018784,-0
 .00011690,0.00010121,-0.00025140,0.00038744,0.00043784,-0.00005384,-0.
 00022628,-0.00003432,-0.00016639,-0.00015220,-0.00018193,0.00001022,-0
 .00001959,-0.00004246,-0.00355279,0.02950372,0.00595468,-0.05691134,0.
 04931557,0.00659504,0.05512191,-0.00190839,-0.01000076,0.00451007,0.00
 085222,0.00096850,0.00158841,0.00018886,-0.00089785,-0.00104921,-0.000
 26423,-0.00008625,0.00003632,-0.00034129,0.00124633,0.00131553,-0.0001
 6867,-0.00036610,-0.00006499,-0.00031440,-0.00011064,-0.00073950,0.000
 02211,0.00001874,-0.00004997,0.00004073,-0.00148438,-0.00101121,0.0525
 3386,-0.29774600,-0.05237286,-0.05276501,0.31464322,-0.00090106,0.0245
 9936,-0.00250224,-0.00096983,0.00029789,-0.00244423,0.00054238,0.00164
 753,0.00219058,0.00048180,0.00023711,-0.00015911,0.00038059,-0.0020901
 2,-0.00264880,0.00019760,0.00020722,0.00015798,-0.00029381,-0.00103928
 ,0.00122265,0.00001775,-0.00004100,-0.00000035,-0.00034494,-0.00318923
 ,-0.00067784,0.00543575,-0.04600703,-0.04815613,-0.01140661,0.04874418
 ,0.05481725,0.00368922,0.00035928,0.00689933,0.00110624,-0.00070007,0.
 00616849,0.00059145,0.00005284,0.00028277,0.00013917,0.00002137,-0.000
 01206,-0.00011356,-0.00076084,-0.00076644,-0.00012033,-0.00040553,-0.0
 0053033,-0.00023808,0.00304226,-0.00301377,0.00003822,-0.00006432,-0.0
 0010916,-0.01202285,-0.00970622,-0.02471659,-0.10889583,-0.03298986,-0
 .10342425,0.00383287,0.00220079,0.00713040,0.11258464,0.00299972,0.000
 46720,0.01282862,0.00045902,-0.00106651,0.00867195,-0.00011953,-0.0001
 4756,0.00007407,0.00003541,-0.00021927,-0.00008679,0.00028943,-0.00104
 167,0.00016380,-0.00017987,-0.00042367,-0.00086374,0.00152715,0.003055
 24,-0.00443035,0.00006246,-0.00006206,-0.00001690,0.00285133,0.0013140
 9,0.00461358,-0.03139628,-0.06470123,-0.06133784,-0.01547701,-0.006024
 64,-0.02339105,0.03893027,0.06926878,-0.00148232,0.00509734,-0.0205865
 1,-0.00105128,-0.00087954,-0.00271094,0.00042178,0.00152363,0.00049963
 ,0.00029204,0.00009796,-0.00023567,0.00005887,-0.00102878,-0.00099028,
 0.00000364,0.00031876,0.00033458,0.00004118,-0.00127189,0.00136015,0.0
 0000079,0.00013259,0.00009950,0.00280892,0.00148755,0.00571708,-0.1103
 2263,-0.06816892,-0.22020222,-0.00197076,-0.00074381,-0.00231586,0.111
 63074,0.06359519,0.23877409,0.00115125,-0.00004545,0.00018688,-0.01721
 006,0.01993705,-0.00195858,-0.00489320,-0.00036860,0.00412647,-0.00088
 233,0.00044090,-0.00131337,0.00048700,0.00095568,0.00065766,-0.1618862
 3,0.14156646,0.00074019,0.00257307,-0.00123047,-0.00263345,0.00034873,
 -0.00058491,0.00024668,0.00001454,0.00004824,-0.00008410,0.00011415,-0
 .00012632,0.00016992,-0.00000945,0.00000834,0.00001448,-0.00006794,-0.
 00001500,-0.00007518,0.17327010,-0.00005967,0.00008683,0.00010521,-0.0
 0811015,0.00530300,0.00058462,-0.00244124,0.00088601,0.00166951,-0.000
 47027,0.00035222,-0.00027637,0.00027937,0.00015655,0.00013275,0.147096
 64,-0.21729091,-0.00008735,0.00010597,0.00041800,-0.00111059,-0.000191
 29,0.00000480,0.00005396,-0.00000406,-0.00001936,0.00002323,-0.0000544
 5,0.00003917,-0.00003654,0.00001139,0.00000467,0.00000383,0.00002084,0
 .00001218,0.00002068,-0.15215468,0.22668215,-0.00030575,0.00011467,-0.
 00036925,0.01071487,-0.01756756,0.00053060,0.00338678,0.00107706,-0.00
 107233,0.00045125,-0.00038383,0.00055983,0.00025956,-0.00025865,-0.000
 28126,-0.00106276,0.00302133,-0.04764473,-0.00121355,0.00118290,0.0010
 4380,0.00001390,0.00006677,-0.00045909,0.00003072,0.00003875,-0.000039
 90,0.00014495,0.00000492,-0.00002592,0.00001735,0.00001925,0.00000852,
 0.00005303,-0.00000735,0.00006089,-0.00263658,-0.00116677,0.04471791,-
 0.00012776,-0.00033488,0.00007069,0.01190838,-0.00536680,0.02549320,0.
 00027456,0.00061794,-0.00120591,0.00039234,-0.00018110,0.00011762,-0.0
 0055602,-0.00019134,-0.00004948,-0.07600904,0.02033008,-0.08550970,-0.
 00500063,-0.00201669,0.00395981,-0.00055961,0.00046023,0.00049857,-0.0
 0002463,-0.00005186,-0.00002680,-0.00019023,-0.00004729,0.00030866,-0.
 00003540,0.00001691,-0.00011663,-0.00000709,0.00005374,-0.00021350,-0.
 00438144,0.00049794,-0.01792001,0.07804963,-0.00056681,-0.00051252,-0.
 00052906,0.00276132,-0.00553926,0.00625870,0.00024316,-0.00037354,-0.0
 0063200,-0.00013149,-0.00008195,0.00007670,0.00004093,0.00030718,0.000
 09577,0.01901364,-0.05350355,0.04822771,-0.00210808,0.00196311,0.00175
 652,0.00075323,-0.00019134,-0.00039487,0.00004716,0.00006075,-0.000132
 52,0.00025335,-0.00006084,0.00024988,0.00000917,0.00004002,-0.00003103
 ,-0.00000306,0.00000206,-0.00003589,0.00386176,-0.00220221,0.02147217,
 -0.01786312,0.05352186,0.00012402,-0.00028778,0.00170188,-0.01131892,0
 .00253495,-0.01511695,-0.00007534,0.00021949,0.00113213,-0.00003001,-0
 .00014854,-0.00018301,0.00034969,-0.00013526,-0.00006424,-0.07974907,0
 .04912446,-0.29707201,0.00438345,0.00089875,-0.00153511,0.00058791,-0.
 00046156,0.00033754,-0.00005583,-0.00011548,0.00017435,-0.00063460,-0.
 00032179,-0.00067091,-0.00004848,-0.00008842,0.00015315,0.00009600,0.0
 0005730,0.00002214,0.00154885,-0.00103300,0.00384449,0.08626182,-0.052
 67247,0.31338550,-0.00167287,-0.00145425,-0.00069286,-0.01262366,-0.02
 066114,-0.00620866,0.00155889,0.00172893,0.00171389,-0.00002056,0.0002
 9086,0.00003298,0.00068291,-0.00181967,-0.00076131,-0.10385788,-0.0995
 0871,-0.04468948,0.00065164,0.00301849,-0.00203323,-0.00111172,0.00024
 781,-0.00027972,-0.00013680,-0.00029962,0.00018301,-0.00036948,0.00001
 344,0.00002568,-0.00013846,-0.00017565,0.00010848,-0.00025712,-0.00029
 940,0.00001987,0.01166611,0.01557645,0.00797837,-0.00396934,-0.0063409
 1,-0.00123557,0.10961029,-0.00127144,-0.00006896,-0.00030091,-0.002835
 92,-0.00691069,-0.00000657,-0.00030320,0.00065193,0.00085468,-0.000056
 56,-0.00004033,-0.00010049,-0.00003842,-0.00039330,-0.00043592,-0.0967
 5218,-0.21756040,-0.07758867,-0.00001402,0.00179445,-0.00044188,-0.000
 05500,-0.00028269,-0.00003519,-0.00003852,-0.00015038,0.00009719,-0.00
 010016,0.00015443,-0.00002206,-0.00005344,-0.00006167,0.00004961,-0.00
 005348,-0.00012348,0.00010115,-0.01234342,-0.01446816,-0.00758830,0.00
 420653,0.00651491,0.00239622,0.10972806,0.23096974,0.00078756,0.000282
 86,0.00206198,0.00818537,0.01798101,0.00527339,-0.00096100,-0.00105431
 ,-0.00042571,-0.00004981,-0.00001092,-0.00005071,-0.00030742,0.0004953
 0,-0.00001192,-0.04185597,-0.07532850,-0.08114274,-0.00016194,-0.00245
 994,-0.00020223,-0.00019682,-0.00021632,0.00005947,0.00002284,-0.00000
 642,0.00011167,-0.00048933,-0.00021133,-0.00066101,0.00000050,0.000002
 86,0.00006006,0.00021622,0.00024941,0.00003500,0.00044785,0.00100121,-
 0.00064061,-0.01146919,-0.02372130,-0.00625316,0.04584796,0.08299928,0
 .08178234,-0.00012994,0.00101469,0.00010171,0.00156802,0.00034510,0.00
 071653,0.01194849,0.01661302,0.02267490,-0.13122680,-0.08467692,-0.106
 81787,-0.00315373,-0.00142009,0.00193410,0.00013068,-0.00029453,-0.000
 01747,-0.00036184,0.00028060,-0.00026873,0.00093348,0.00009571,-0.0008
 0700,0.00003857,0.00001572,-0.00002560,-0.00007073,0.00012516,0.000224
 62,0.00004817,0.00007721,-0.00014063,-0.00002449,0.00000753,-0.0000660
 5,0.00005333,0.00001066,-0.00003395,0.00003851,0.00000532,-0.00002741,
 -0.00006937,0.00000449,0.00003794,0.13264115,0.00005583,-0.00003662,0.
 00023419,-0.00112531,0.00063228,-0.00183585,-0.00026344,-0.00268761,-0
 .00346832,-0.07880589,-0.13161709,-0.10133041,0.00069532,0.00140053,0.
 00008593,0.00004936,-0.00011917,0.00003218,-0.00012152,0.00031560,0.00
 135540,0.00059853,0.00050088,0.00054916,0.00005319,0.00003489,0.000006
 21,0.00002770,-0.00021579,0.00004979,-0.00000925,-0.00005484,-0.000010
 03,-0.00006525,0.00000240,-0.00009058,0.00000431,-0.00000153,-0.000002
 31,-0.00002118,-0.00000901,0.00003979,-0.00000048,-0.00000913,-0.00000
 156,0.08376494,0.13062255,0.00022537,-0.00143483,-0.00022732,-0.002307
 46,0.00187551,-0.00056328,-0.01054187,-0.01814145,-0.02568771,-0.09668
 723,-0.09808528,-0.17435106,0.00410995,0.00368040,-0.00033644,0.000074
 95,-0.00005076,0.00001462,0.00024555,-0.00058254,0.00129590,-0.0006180
 1,-0.00031783,0.00050650,-0.00005818,-0.00003155,0.00004509,0.00013867
 ,-0.00018120,-0.00024568,-0.00008026,-0.00009648,0.00016774,-0.0000020
 4,-0.00000004,0.00006000,0.00003459,0.00000561,-0.00001098,-0.00004840
 ,-0.00000446,0.00002575,0.00004301,0.00001100,-0.00000769,0.10116384,0
 .11088005,0.19180897,-0.00002806,0.00030495,0.00021328,0.00188753,-0.0
 0298828,0.00375092,-0.01921656,0.01202441,-0.00220512,-0.23218813,0.11
 494774,-0.07195769,0.00044468,-0.00069200,-0.00061489,-0.00065815,0.00
 092603,-0.00023648,0.00044018,0.00007534,-0.00073751,0.00001242,-0.000
 00861,-0.00028830,0.00003557,0.00002618,-0.00001845,-0.00001771,-0.000
 01037,0.00000976,0.00002128,0.00003257,-0.00003874,0.00001046,0.000037
 58,-0.00000104,-0.00028843,-0.00013758,0.00014743,0.00006549,0.0000150
 5,-0.00004371,-0.00000182,-0.00001196,-0.00001221,-0.00891050,0.007631
 43,-0.00279167,0.24757908,-0.00007502,-0.00020770,-0.00021167,-0.00027
 754,0.00103178,0.00017692,0.00300905,-0.00301383,0.00110499,0.11665361
 ,-0.12446774,0.04450113,0.00032326,-0.00021000,0.00030980,0.00014266,-
 0.00026077,0.00006668,0.00054153,0.00009216,-0.00080490,-0.00054883,0.
 00042412,-0.00009695,-0.00001280,0.00000646,0.00002248,0.00009350,0.00
 000470,0.00006239,-0.00002217,-0.00002897,-0.00003377,-0.00005267,0.00
 003404,-0.00006378,0.00005663,0.00005922,-0.00004563,-0.00002522,0.000
 02270,0.00000209,0.00000497,0.00000019,-0.00001068,-0.01461387,0.01105
 723,-0.00403753,-0.12704722,0.12454614,-0.00014242,-0.00008267,-0.0002
 0838,0.00016654,0.00392810,-0.00727965,0.03311544,-0.02136259,0.005150
 42,-0.08142364,0.05086565,-0.07962245,-0.00036575,-0.00005886,0.001102
 43,0.00108198,-0.00131445,0.00055974,-0.00143601,-0.00000865,0.0024717
 2,-0.00007666,-0.00001739,0.00117382,-0.00001982,-0.00004080,0.0000028
 0,-0.00001291,0.00002897,0.00005955,-0.00002123,-0.00002298,0.00001518
 ,-0.00001526,-0.00005398,-0.00000155,0.00046405,0.00014212,-0.00024095
 ,-0.00012367,-0.00000991,0.00004217,0.00002313,0.00001044,0.00001380,-
 0.01372497,0.01237311,-0.00381217,0.07188011,-0.04717219,0.08344413,-0
 .00036772,0.00021940,-0.00015591,0.00069152,-0.00194088,0.00230081,-0.
 00814236,-0.01843989,0.01177108,-0.06818373,-0.06446137,0.02743400,0.0
 0049373,-0.00115982,-0.00119587,-0.00005299,0.00022977,-0.00028123,0.0
 0022918,0.00123731,-0.00176313,-0.00202168,0.00177120,0.00266314,-0.00
 004113,-0.00000321,0.00000085,0.00023822,-0.00011878,0.00023742,-0.000
 02201,-0.00003598,-0.00009697,-0.00024498,0.00023344,-0.00009506,-0.00
 005917,0.00002414,-0.00002561,0.00013227,0.00000938,-0.00013282,0.0000
 5924,-0.00001133,-0.00004254,-0.00345300,-0.01246827,0.00709920,0.0108
 1268,0.02185011,-0.00936889,0.06993193,-0.00021822,0.00042942,0.000282
 51,0.00099903,-0.00056521,0.00136444,0.00264124,0.01111005,-0.00453223
 ,-0.07351611,-0.28143117,0.10047291,-0.00037454,0.00049933,-0.00014834
 ,-0.00008371,-0.00001155,0.00004462,0.00200468,-0.00070590,-0.00140359
 ,0.00201253,0.00028525,-0.00173128,-0.00001290,-0.00004459,-0.00001984
 ,-0.00006552,-0.00019505,0.00014232,-0.00000129,-0.00005936,0.00004579
 ,0.00017364,-0.00034590,-0.00009165,-0.00001053,-0.00002264,0.00002259
 ,-0.00008389,0.00004161,-0.00000873,-0.00004918,-0.00001646,0.00000935
 ,-0.00135474,-0.00981558,0.00651137,-0.00512527,-0.00908973,0.00279609
 ,0.07306478,0.28993746,-0.00012689,-0.00002621,0.00006808,-0.00127686,
 0.00203824,-0.00021829,0.01080233,0.02646144,-0.01693886,0.02820064,0.
 08990432,-0.08976824,-0.00005715,0.00142587,0.00067304,0.00010206,-0.0
 0021856,-0.00005616,-0.00055755,-0.00063815,0.00072281,0.00332956,-0.0
 0234826,-0.00341160,-0.00006601,-0.00009090,-0.00002420,-0.00008215,-0
 .00006665,-0.00007318,-0.00001376,0.00002284,0.00011146,0.00011289,-0.
 00006588,0.00007998,0.00006364,-0.00003211,0.00001898,-0.00002708,0.00
 002607,0.00007629,-0.00007556,0.00000043,-0.00000194,-0.00492397,-0.01
 886675,0.01131776,0.00294431,0.00623061,-0.00287059,-0.03834845,-0.103
 75634,0.10029464\\0.00000453,-0.00000608,0.00000384,-0.00000239,0.0000
 0088,0.00000307,-0.00000337,-0.00000477,-0.00000743,-0.00000335,0.0000
 0173,-0.00000671,0.00000395,0.00000024,0.00000097,0.00000057,-0.000001
 25,0.00000247,-0.00000144,0.00000568,0.00000274,-0.00000107,-0.0000018
 6,-0.00000697,0.00000265,-0.00000215,0.00000292,0.00000081,-0.00000165
 ,0.00000664,0.00000468,-0.00000184,0.00001102,0.00000314,0.00000340,0.
 00000478,0.00000123,0.00000058,0.00000606,0.00000303,-0.00000310,-0.00
 000062,-0.00000086,0.00000176,-0.00000045,-0.00000561,0.00000516,-0.00
 000785,-0.00000335,-0.00000004,-0.00001032,-0.00000314,0.00000332,-0.0
 0000415\\\@


 IF YOU GIVE EVERYONE A PIECE OF YOUR MIND,
 PRETTY SOON IT WILL BE ALL GONE.
 Job cpu time:  0 days  0 hours  9 minutes 32.1 seconds.
 File lengths (MBytes):  RWF=     98 Int=      0 D2E=      0 Chk=     11 Scr=      1
 Normal termination of Gaussian 09 at Wed Apr 18 15:56:11 2012.
