                                                                        
Freq      RPBE1PBE                                                    Gen                 
Number of atoms                            I                7
Info1-9                                    I   N=           9
         199         199        1002           0           1         100
           6          18        -302
Charge                                     I                0
Multiplicity                               I                1
Number of electrons                        I               40
Number of alpha electrons                  I               20
Number of beta electrons                   I               20
Number of basis functions                  I              216
Number of independent functions            I              216
Number of point charges in /Mol/           I                0
Number of translation vectors              I                0
Atomic numbers                             I   N=           7
           6          16           1           1           7           8
           1
Nuclear charges                            R   N=           7
  6.00000000E+00  1.60000000E+01  1.00000000E+00  1.00000000E+00  7.00000000E+00
  8.00000000E+00  1.00000000E+00
Current cartesian coordinates              R   N=          21
 -2.56591205E+00  1.67342868E+00  4.38540224E-02 -1.09899347E+00 -1.38979448E+00
 -1.60759880E-01 -1.81367929E+00  2.96591527E+00 -1.37160933E+00 -2.36083095E+00
  2.46727334E+00  1.93495027E+00  2.12904706E+00 -9.06863171E-02  9.88459615E-01
  3.35279225E+00  7.52433497E-01 -6.06574659E-01 -4.57178937E+00  1.37828730E+00
 -3.20927029E-01
Force Field                                I                0
Int Atom Types                             I   N=           7
           0           0           0           0           0           0
           0
MM charges                                 R   N=           7
  0.00000000E+00  0.00000000E+00  0.00000000E+00  0.00000000E+00  0.00000000E+00
  0.00000000E+00  0.00000000E+00
Integer atomic weights                     I   N=           7
          12          32           1           1          14          16
           1
Real atomic weights                        R   N=           7
  1.20000000E+01  3.19720718E+01  1.00782504E+00  1.00782504E+00  1.40030740E+01
  1.59949146E+01  1.00782504E+00
Atom fragment info                         I   N=           7
           0           0           0           0           0           0
           0
Atom residue num                           I   N=           7
           0           0           0           0           0           0
           0
Nuclear spins                              I   N=           7
           0           0           1           1           2           0
           1
Nuclear ZEff                               R   N=           7
 -3.60000000E+00 -1.36000000E+01 -1.00000000E+00 -1.00000000E+00 -4.55000000E+00
 -5.60000000E+00 -1.00000000E+00
Nuclear QMom                               R   N=           7
  0.00000000E+00  0.00000000E+00  0.00000000E+00  0.00000000E+00  2.04400000E+00
  0.00000000E+00  0.00000000E+00
Nuclear GFac                               R   N=           7
  0.00000000E+00  0.00000000E+00  2.79284600E+00  2.79284600E+00  4.03761000E-01
  0.00000000E+00  2.79284600E+00
MicOpt                                     I   N=           7
          -1          -1          -1          -1          -1          -1
          -1
Number of contracted shells                I               78
Number of primitive shells                 I              124
Pure/Cartesian d shells                    I                0
Pure/Cartesian f shells                    I                0
Highest angular momentum                   I                3
Largest degree of contraction              I                7
Shell types                                I   N=          78
           0           0           0           0           0           0
           1           1           1          -2          -2          -2
          -3           0           0           0           0           0
           0           1           1           1           1           1
           1          -2          -2          -2          -2          -3
           0           0           0           1           1           1
          -2           0           0           0           1           1
           1          -2           0           0           0           0
           0           0           1           1           1          -2
          -2          -2          -3           0           0           0
           0           0           0           1           1           1
           1          -2          -2          -2          -3           0
           0           0           1           1           1          -2
Number of primitives per shell             I   N=          78
           6           2           1           1           1           1
           4           1           1           1           1           1
           1           7           3           2           1           1
           1           5           1           1           1           1
           1           1           1           1           1           1
           3           1           1           1           1           1
           1           3           1           1           1           1
           1           1           6           2           1           1
           1           1           4           1           1           1
           1           1           1           6           2           1
           1           1           1           4           1           1
           1           1           1           1           1           3
           1           1           1           1           1           1
Shell to atom map                          I   N=          78
           1           1           1           1           1           1
           1           1           1           1           1           1
           1           2           2           2           2           2
           2           2           2           2           2           2
           2           2           2           2           2           2
           3           3           3           3           3           3
           3           4           4           4           4           4
           4           4           5           5           5           5
           5           5           5           5           5           5
           5           5           5           6           6           6
           6           6           6           6           6           6
           6           6           6           6           6           7
           7           7           7           7           7           7
Primitive exponents                        R   N=         124
  1.35753497E+04  2.03523337E+03  4.63225624E+02  1.31200196E+02  4.28530159E+01
  1.55841858E+01  6.20671385E+00  2.57648965E+00  5.76963394E-01  2.29728314E-01
  9.51644400E-02  4.84754014E-02  3.46972322E+01  7.95826228E+00  2.37808269E+00
  8.14332082E-01  2.88875473E-01  1.00568237E-01  1.09700000E+00  3.18000000E-01
  9.09853364E-02  7.61000000E-01  6.07009281E+04  9.10261069E+03  2.07141660E+03
  5.86024768E+02  1.90553950E+02  6.76303843E+01  2.51273069E+01  1.12574630E+02
  3.47955542E+01  6.51155562E+00  3.23990323E+00  1.54771609E+00  4.05410301E-01
  1.45506511E-01  5.01788395E-02  5.64367160E+02  1.33426244E+02  4.24682712E+01
  1.56165276E+01  6.10939885E+00  2.44041602E+00  8.38822013E-01  3.12887469E-01
  1.07701090E-01  3.03598336E-02  3.75600000E+00  8.12000000E-01  2.73000000E-01
  8.15470250E-02  5.57000000E-01  3.40613410E+01  5.12357460E+00  1.16466260E+00
  3.27230410E-01  1.03072410E-01  1.40700000E+00  3.88000000E-01  9.57741296E-02
  1.05700000E+00  3.40613410E+01  5.12357460E+00  1.16466260E+00  3.27230410E-01
  1.03072410E-01  1.40700000E+00  3.88000000E-01  9.57741296E-02  1.05700000E+00
  1.97308006E+04  2.95789587E+03  6.73221336E+02  1.90682495E+02  6.22954419E+01
  2.26541612E+01  8.97914774E+00  3.68630024E+00  8.46600768E-01  3.36471338E-01
  1.36476537E-01  6.84416058E-02  4.92003805E+01  1.13467905E+01  3.42739724E+00
  1.17855251E+00  4.16422050E-01  1.42608260E-01  1.65400000E+00  4.69000000E-01
  1.28296421E-01  1.09300000E+00  2.70323826E+04  4.05238714E+03  9.22327227E+02
  2.61240710E+02  8.53546414E+01  3.10350352E+01  1.22608607E+01  4.99870760E+00
  1.17031082E+00  4.64747410E-01  1.85045364E-01  7.02880263E-02  6.32749548E+01
  1.46270494E+01  4.45012235E+00  1.52757996E+00  5.29351179E-01  1.74784213E-01
  5.11127457E-02  2.31400000E+00  6.45000000E-01  1.46964774E-01  1.42800000E+00
  3.40613410E+01  5.12357460E+00  1.16466260E+00  3.27230410E-01  1.03072410E-01
  1.40700000E+00  3.88000000E-01  9.57741296E-02  1.05700000E+00
Contraction coefficients                   R   N=         124
  6.06455036E-04  4.69790889E-03  2.43324776E-02  9.73999683E-02  3.01955843E-01
  6.62336091E-01  6.55953085E-01  3.75856333E-01  1.00000000E+00  1.00000000E+00
  1.00000000E+00  1.00000000E+00  1.13272200E-02  7.61696592E-02  3.01922522E-01
  7.27850273E-01  1.00000000E+00  1.00000000E+00  1.00000000E+00  1.00000000E+00
  1.00000000E+00  1.00000000E+00  5.23800749E-04  4.05063268E-03  2.08270042E-02
  8.14968503E-02  2.37491138E-01  4.47261715E-01  3.48919184E-01  1.00455699E-01
  4.33911729E-01 -1.20843306E+00  6.74981294E-01  3.47087958E-01  1.00000000E+00
  1.00000000E+00  1.00000000E+00  3.48869236E-03  2.76851268E-02  1.26594002E-01
  3.61659257E-01  6.12220344E-01  1.00000000E+00  1.00000000E+00  1.00000000E+00
  1.00000000E+00  1.00000000E+00  1.00000000E+00  1.00000000E+00  1.00000000E+00
  1.00000000E+00  1.00000000E+00  2.54393072E-02  1.90085949E-01  8.52441130E-01
  1.00000000E+00  1.00000000E+00  1.00000000E+00  1.00000000E+00  1.00000000E+00
  1.00000000E+00  2.54393072E-02  1.90085949E-01  8.52441130E-01  1.00000000E+00
  1.00000000E+00  1.00000000E+00  1.00000000E+00  1.00000000E+00  1.00000000E+00
  5.86264026E-04  4.54288206E-03  2.35584135E-02  9.47091933E-02  2.97197849E-01
  6.69162469E-01  6.45966836E-01  3.87005744E-01  1.00000000E+00  1.00000000E+00
  1.00000000E+00  1.00000000E+00  1.14488251E-02  7.84223380E-02  3.08180947E-01
  7.20271964E-01  1.00000000E+00  1.00000000E+00  1.00000000E+00  1.00000000E+00
  1.00000000E+00  1.00000000E+00  5.72273352E-04  4.43532335E-03  2.30201077E-02
  9.28224907E-02  2.93785000E-01  6.74016045E-01  6.38399370E-01  3.95345871E-01
  1.00000000E+00  1.00000000E+00  1.00000000E+00  1.00000000E+00  1.20183322E-02
  8.30054218E-02  3.19917439E-01  7.07155429E-01  1.00000000E+00  1.00000000E+00
  1.00000000E+00  1.00000000E+00  1.00000000E+00  1.00000000E+00  1.00000000E+00
  2.54393072E-02  1.90085949E-01  8.52441130E-01  1.00000000E+00  1.00000000E+00
  1.00000000E+00  1.00000000E+00  1.00000000E+00  1.00000000E+00
Coordinates of each shell                  R   N=         234
 -2.56591205E+00  1.67342868E+00  4.38540224E-02 -2.56591205E+00  1.67342868E+00
  4.38540224E-02 -2.56591205E+00  1.67342868E+00  4.38540224E-02 -2.56591205E+00
  1.67342868E+00  4.38540224E-02 -2.56591205E+00  1.67342868E+00  4.38540224E-02
 -2.56591205E+00  1.67342868E+00  4.38540224E-02 -2.56591205E+00  1.67342868E+00
  4.38540224E-02 -2.56591205E+00  1.67342868E+00  4.38540224E-02 -2.56591205E+00
  1.67342868E+00  4.38540224E-02 -2.56591205E+00  1.67342868E+00  4.38540224E-02
 -2.56591205E+00  1.67342868E+00  4.38540224E-02 -2.56591205E+00  1.67342868E+00
  4.38540224E-02 -2.56591205E+00  1.67342868E+00  4.38540224E-02 -1.09899347E+00
 -1.38979448E+00 -1.60759880E-01 -1.09899347E+00 -1.38979448E+00 -1.60759880E-01
 -1.09899347E+00 -1.38979448E+00 -1.60759880E-01 -1.09899347E+00 -1.38979448E+00
 -1.60759880E-01 -1.09899347E+00 -1.38979448E+00 -1.60759880E-01 -1.09899347E+00
 -1.38979448E+00 -1.60759880E-01 -1.09899347E+00 -1.38979448E+00 -1.60759880E-01
 -1.09899347E+00 -1.38979448E+00 -1.60759880E-01 -1.09899347E+00 -1.38979448E+00
 -1.60759880E-01 -1.09899347E+00 -1.38979448E+00 -1.60759880E-01 -1.09899347E+00
 -1.38979448E+00 -1.60759880E-01 -1.09899347E+00 -1.38979448E+00 -1.60759880E-01
 -1.09899347E+00 -1.38979448E+00 -1.60759880E-01 -1.09899347E+00 -1.38979448E+00
 -1.60759880E-01 -1.09899347E+00 -1.38979448E+00 -1.60759880E-01 -1.09899347E+00
 -1.38979448E+00 -1.60759880E-01 -1.09899347E+00 -1.38979448E+00 -1.60759880E-01
 -1.81367929E+00  2.96591527E+00 -1.37160933E+00 -1.81367929E+00  2.96591527E+00
 -1.37160933E+00 -1.81367929E+00  2.96591527E+00 -1.37160933E+00 -1.81367929E+00
  2.96591527E+00 -1.37160933E+00 -1.81367929E+00  2.96591527E+00 -1.37160933E+00
 -1.81367929E+00  2.96591527E+00 -1.37160933E+00 -1.81367929E+00  2.96591527E+00
 -1.37160933E+00 -2.36083095E+00  2.46727334E+00  1.93495027E+00 -2.36083095E+00
  2.46727334E+00  1.93495027E+00 -2.36083095E+00  2.46727334E+00  1.93495027E+00
 -2.36083095E+00  2.46727334E+00  1.93495027E+00 -2.36083095E+00  2.46727334E+00
  1.93495027E+00 -2.36083095E+00  2.46727334E+00  1.93495027E+00 -2.36083095E+00
  2.46727334E+00  1.93495027E+00  2.12904706E+00 -9.06863171E-02  9.88459615E-01
  2.12904706E+00 -9.06863171E-02  9.88459615E-01  2.12904706E+00 -9.06863171E-02
  9.88459615E-01  2.12904706E+00 -9.06863171E-02  9.88459615E-01  2.12904706E+00
 -9.06863171E-02  9.88459615E-01  2.12904706E+00 -9.06863171E-02  9.88459615E-01
  2.12904706E+00 -9.06863171E-02  9.88459615E-01  2.12904706E+00 -9.06863171E-02
  9.88459615E-01  2.12904706E+00 -9.06863171E-02  9.88459615E-01  2.12904706E+00
 -9.06863171E-02  9.88459615E-01  2.12904706E+00 -9.06863171E-02  9.88459615E-01
  2.12904706E+00 -9.06863171E-02  9.88459615E-01  2.12904706E+00 -9.06863171E-02
  9.88459615E-01  3.35279225E+00  7.52433497E-01 -6.06574659E-01  3.35279225E+00
  7.52433497E-01 -6.06574659E-01  3.35279225E+00  7.52433497E-01 -6.06574659E-01
  3.35279225E+00  7.52433497E-01 -6.06574659E-01  3.35279225E+00  7.52433497E-01
 -6.06574659E-01  3.35279225E+00  7.52433497E-01 -6.06574659E-01  3.35279225E+00
  7.52433497E-01 -6.06574659E-01  3.35279225E+00  7.52433497E-01 -6.06574659E-01
  3.35279225E+00  7.52433497E-01 -6.06574659E-01  3.35279225E+00  7.52433497E-01
 -6.06574659E-01  3.35279225E+00  7.52433497E-01 -6.06574659E-01  3.35279225E+00
  7.52433497E-01 -6.06574659E-01  3.35279225E+00  7.52433497E-01 -6.06574659E-01
  3.35279225E+00  7.52433497E-01 -6.06574659E-01 -4.57178937E+00  1.37828730E+00
 -3.20927029E-01 -4.57178937E+00  1.37828730E+00 -3.20927029E-01 -4.57178937E+00
  1.37828730E+00 -3.20927029E-01 -4.57178937E+00  1.37828730E+00 -3.20927029E-01
 -4.57178937E+00  1.37828730E+00 -3.20927029E-01 -4.57178937E+00  1.37828730E+00
 -3.20927029E-01 -4.57178937E+00  1.37828730E+00 -3.20927029E-01
Constraint Structure                       R   N=          21
 -2.56591205E+00  1.67342868E+00  4.38540224E-02 -1.09899347E+00 -1.38979448E+00
 -1.60759880E-01 -1.81367929E+00  2.96591527E+00 -1.37160933E+00 -2.36083095E+00
  2.46727334E+00  1.93495027E+00  2.12904706E+00 -9.06863171E-02  9.88459615E-01
  3.35279225E+00  7.52433497E-01 -6.06574659E-01 -4.57178937E+00  1.37828730E+00
 -3.20927029E-01
Num ILSW                                   I              100
ILSW                                       I   N=         100
           0           0           0           0           2           0
           0           0           0           0        1009          -1
           0           0           0           0           0           0
           0           0           0           0           1           0
           1           0           0           0           0           0
           0           0      100000           0          -1           0
           0           0           0           0           0           0
           0           0           0           1           0           0
           0           0           1           0           0           0
           0           0           4          40           0           0
           0           0          13           0           0           0
           0           0           0           0           0           0
           0           0           0           0           0           0
           0           0           0           0           0           0
           0           0           0           0           0           0
           0           0           0           0           0           0
           0           0           0           0
Num RLSW                                   I               40
RLSW                                       R   N=          40
  7.50000000E-01  7.50000000E-01  1.00000000E+00  1.00000000E+00  2.50000000E-01
  0.00000000E+00  0.00000000E+00  1.00000000E+00  0.00000000E+00  0.00000000E+00
  0.00000000E+00  0.00000000E+00  1.00000000E+00  0.00000000E+00  0.00000000E+00
  0.00000000E+00  0.00000000E+00  1.00000000E+00  0.00000000E+00  0.00000000E+00
  0.00000000E+00  0.00000000E+00  1.00000000E+00  0.00000000E+00  0.00000000E+00
  0.00000000E+00  0.00000000E+00  1.00000000E+00  0.00000000E+00  0.00000000E+00
  0.00000000E+00  0.00000000E+00  0.00000000E+00  0.00000000E+00  0.00000000E+00
  0.00000000E+00  0.00000000E+00  0.00000000E+00  1.00000000E+00  1.00000000E+00
MxBond                                     I                4
NBond                                      I   N=           7
           4           2           1           1           2           1
           1
IBond                                      I   N=          28
           2           3           4           7           1           5
           0           0           1           0           0           0
           1           0           0           0           2           6
           0           0           5           0           0           0
           1           0           0           0
RBond                                      R   N=          28
  1.00000000E+00  1.00000000E+00  1.00000000E+00  1.00000000E+00  1.00000000E+00
  1.00000000E+00  0.00000000E+00  0.00000000E+00  1.00000000E+00  0.00000000E+00
  0.00000000E+00  0.00000000E+00  1.00000000E+00  0.00000000E+00  0.00000000E+00
  0.00000000E+00  1.00000000E+00  2.00000000E+00  0.00000000E+00  0.00000000E+00
  2.00000000E+00  0.00000000E+00  0.00000000E+00  0.00000000E+00  1.00000000E+00
  0.00000000E+00  0.00000000E+00  0.00000000E+00
Virial Ratio                               R      2.002232685967814E+00
SCF Energy                                 R     -5.677343464961097E+02
Total Energy                               R     -5.677343464961097E+02
RMS Force                                  R      2.919371309106090E-05
RMS Density                                R      1.483935802702408E-09
External E-field                           R   N=          35
  0.00000000E+00  0.00000000E+00  0.00000000E+00  0.00000000E+00  0.00000000E+00
  0.00000000E+00  0.00000000E+00  0.00000000E+00  0.00000000E+00  0.00000000E+00
  0.00000000E+00  0.00000000E+00  0.00000000E+00  0.00000000E+00  0.00000000E+00
  0.00000000E+00  0.00000000E+00  0.00000000E+00  0.00000000E+00  0.00000000E+00
  0.00000000E+00  0.00000000E+00  0.00000000E+00  0.00000000E+00  0.00000000E+00
  0.00000000E+00  0.00000000E+00  0.00000000E+00  0.00000000E+00  0.00000000E+00
  0.00000000E+00  0.00000000E+00  0.00000000E+00  0.00000000E+00  0.00000000E+00
IOpCl                                      I                0
IROHF                                      I                0
Alpha Orbital Energies                     R   N=         216
 -8.90290473E+01 -1.93316243E+01 -1.45591731E+01 -1.02612139E+01 -8.00742913E+00
 -5.94414371E+00 -5.94169057E+00 -5.93439117E+00 -1.27965243E+00 -8.24986756E-01
 -7.29240216E-01 -6.42857099E-01 -5.39364868E-01 -5.34528196E-01 -5.19649405E-01
 -4.53188827E-01 -4.41653053E-01 -3.78780608E-01 -2.62915982E-01 -2.50268577E-01
 -1.14271009E-01 -3.47395335E-02  1.34007454E-02  2.59597628E-02  3.79735113E-02
  4.26882104E-02  7.40479120E-02  7.84908088E-02  8.36929811E-02  9.16190102E-02
  1.01084639E-01  1.10985866E-01  1.31505520E-01  1.32340655E-01  1.59378890E-01
  1.76634531E-01  1.80960377E-01  1.96800824E-01  1.99818583E-01  2.04398785E-01
  2.21387224E-01  2.31937635E-01  2.45685246E-01  2.64011693E-01  2.65809028E-01
  2.79829358E-01  2.96608521E-01  2.99744746E-01  3.14568591E-01  3.17415742E-01
  3.32300212E-01  3.35975268E-01  3.57482197E-01  3.73307074E-01  3.76764177E-01
  3.83340940E-01  3.95525263E-01  4.03048521E-01  4.21968541E-01  4.30240064E-01
  4.41111460E-01  4.45181899E-01  4.62888810E-01  4.71610472E-01  5.05058611E-01
  5.14576619E-01  5.17147720E-01  5.38891844E-01  5.49224745E-01  5.63765474E-01
  5.78731963E-01  5.94768098E-01  6.16115779E-01  6.38255053E-01  6.72487257E-01
  6.82181043E-01  6.90929778E-01  7.02000085E-01  7.14993597E-01  7.17615998E-01
  7.36131487E-01  7.48402019E-01  7.51607108E-01  7.98720420E-01  8.33122470E-01
  8.59398762E-01  9.00280946E-01  9.04127086E-01  9.27923550E-01  9.55260385E-01
  1.02997693E+00  1.09344948E+00  1.11247416E+00  1.14800771E+00  1.15399112E+00
  1.18046654E+00  1.19118175E+00  1.22337980E+00  1.26196970E+00  1.28803275E+00
  1.30521760E+00  1.33759724E+00  1.37365357E+00  1.40568659E+00  1.44109295E+00
  1.49785410E+00  1.56452692E+00  1.58220896E+00  1.59673590E+00  1.62608549E+00
  1.66375255E+00  1.66979239E+00  1.69907491E+00  1.73299608E+00  1.76598758E+00
  1.78304907E+00  1.80594533E+00  1.82617432E+00  1.85152263E+00  1.86811148E+00
  1.91204417E+00  1.95531491E+00  1.98800077E+00  2.00731577E+00  2.01688012E+00
  2.07621417E+00  2.15911587E+00  2.20225414E+00  2.27111664E+00  2.31028902E+00
  2.34962666E+00  2.38317122E+00  2.40507672E+00  2.44257019E+00  2.59713418E+00
  2.62349194E+00  2.74055661E+00  2.78411129E+00  2.81264994E+00  2.86721268E+00
  2.96906789E+00  2.99429237E+00  3.01243556E+00  3.01643255E+00  3.04425116E+00
  3.08852445E+00  3.13470803E+00  3.17612417E+00  3.26030869E+00  3.34327658E+00
  3.36532942E+00  3.42476152E+00  3.46463015E+00  3.52589652E+00  3.54330366E+00
  3.61707546E+00  3.63122457E+00  3.74575452E+00  3.80439101E+00  3.84417663E+00
  3.85218048E+00  3.88757648E+00  3.94028741E+00  3.97609949E+00  4.01033508E+00
  4.07896519E+00  4.08603920E+00  4.13872081E+00  4.15480762E+00  4.16996075E+00
  4.26899928E+00  4.29983780E+00  4.31170295E+00  4.32011883E+00  4.59881999E+00
  4.62738241E+00  4.67803884E+00  4.69386359E+00  4.72356930E+00  4.79726251E+00
  4.81282055E+00  5.03492397E+00  5.08368488E+00  5.08900416E+00  5.09151400E+00
  5.11912270E+00  5.13130344E+00  5.23269550E+00  5.26878601E+00  5.35858904E+00
  5.37755912E+00  5.38372596E+00  5.57077810E+00  5.58449174E+00  5.62507327E+00
  5.65921642E+00  6.36966043E+00  6.38130410E+00  6.43827844E+00  6.50437183E+00
  6.84747603E+00  6.88705561E+00  6.89055998E+00  6.90822299E+00  6.93620635E+00
  6.98498438E+00  7.14764309E+00  7.18606328E+00  7.37462893E+00  9.08256245E+00
  9.37872836E+00  9.50161851E+00  1.96036383E+01  2.35448879E+01  3.22471421E+01
  4.42025177E+01
Alpha MO coefficients                      R   N=       46656
  9.07933084E-06 -3.22929590E-05  5.65281397E-04 -2.40013101E-03  1.30369120E-02
  1.39796583E-04  7.75826822E-05 -1.64469229E-04 -1.41534241E-05  8.42944065E-05
  6.36423382E-04  1.77174238E-04  1.74373013E-03 -1.38247248E-03  5.82534485E-04
 -1.87550654E-05 -9.96283035E-06  7.90586652E-06 -4.88279816E-05 -2.66421058E-05
  4.19907331E-04  5.98114598E-06 -7.45028612E-05  3.09290398E-04  2.88514195E-04
 -3.84957228E-05 -2.01167542E-04 -4.76602257E-05 -2.33318820E-04 -8.62168646E-04
 -1.46165524E-05  7.78883040E-05 -1.42892404E-04 -1.78378025E-05 -2.83898494E-05
  2.27248411E-04 -4.39076860E-05  9.99162308E-01 -3.13936642E-02 -1.06850358E-02
  5.19571927E-03 -7.10901435E-03 -2.77449482E-03  1.96493626E-05  8.50863399E-05
  2.01732508E-05 -5.26232862E-05 -5.04043031E-05 -2.24552629E-05  1.78275524E-04
 -1.17512606E-04  2.45674077E-05 -4.71617806E-04  8.45688149E-04  2.59865047E-05
 -5.20867231E-04 -3.43457467E-03 -9.44972916E-04 -3.93561146E-05 -3.93857970E-04
 -5.96539624E-05  2.85298933E-05 -7.86953553E-06 -9.86806343E-06  1.47872119E-05
  1.52587554E-05 -1.31411362E-04  4.70660337E-05  4.93739404E-05 -5.14213847E-05
 -4.79161841E-05  4.44890412E-05 -1.79802726E-04 -9.80838337E-05 -1.84879481E-04
 -3.30004157E-04  3.42495291E-04 -1.42394994E-04 -2.45475518E-04  4.41455030E-04
  1.77329741E-05  1.23263017E-05  6.53164731E-05 -7.54378487E-05 -2.61780622E-05
 -2.87585348E-05  9.88071838E-05 -3.80512511E-05  1.50615176E-05 -6.96710205E-05
 -2.42935141E-03 -1.19777841E-05 -3.52565642E-06  2.46143903E-05 -9.32444914E-05
  6.14018611E-05  6.45296163E-05  3.14422476E-04  5.40318642E-04 -3.60507817E-04
  8.50617281E-06 -3.07295105E-05 -8.05950658E-06 -5.59088503E-07 -6.14485634E-06
  1.91719603E-05 -2.50175440E-04 -3.23036790E-03 -7.20011856E-06  4.79158678E-06
 -1.94220952E-05 -6.84448472E-05  1.17081667E-04 -4.17089390E-05  2.88994386E-04
  4.33479925E-04  7.55162933E-04  2.70391958E-05  1.61850983E-05 -6.03077031E-06
 -7.13391920E-06 -1.19146487E-05  3.21447939E-06 -9.42250278E-06 -1.21691351E-04
  4.39552438E-04  8.23773177E-04  1.97016364E-03 -2.01442424E-05 -2.17896590E-05
  2.50362252E-06  1.33933489E-04  1.70651094E-04 -3.24227824E-04 -4.50165362E-04
 -4.40776913E-04 -1.48644423E-04 -1.21828919E-05  8.04826675E-06  1.22876841E-06
  1.64734247E-05  2.66665468E-05  9.14072867E-05 -1.51548813E-04 -1.09145356E-04
  4.75401629E-05  6.20852938E-05 -2.97713996E-04 -1.05397861E-04  7.17360486E-05
  4.30584603E-04  4.81931470E-04 -2.26553560E-05  3.30978145E-05  2.74408479E-05
  3.87984821E-06 -1.68581241E-05  3.32948056E-06  2.66518432E-05  2.96146908E-06
 -1.14438304E-05  1.56118073E-04 -6.82268087E-04 -1.23053219E-04 -3.18302205E-04
 -3.63865550E-05 -1.12211074E-05 -1.29117024E-06  3.65156766E-04  1.78268346E-04
 -1.95463536E-04 -6.47613266E-04 -2.87663895E-05 -2.42708325E-04 -1.58187494E-04
  9.33346754E-05 -1.95343237E-04  1.05102415E-06  1.48710136E-06  1.74222497E-06
 -9.35692846E-06 -1.04077472E-05 -1.27831077E-05  8.03480474E-05  5.09466515E-05
 -2.89866305E-06 -3.18286508E-05 -1.73434439E-04 -1.32359835E-04  2.33949908E-05
  1.38318173E-04  8.32819102E-05  6.00263687E-06  3.93466810E-06  4.18266896E-06
 -8.75811950E-06 -1.20997420E-05 -3.98186905E-06 -3.67809633E-06 -2.65858116E-05
  4.61382216E-04 -1.32086489E-03  2.04807283E-05  3.40573453E-05  1.22911419E-05
  2.48165973E-04  2.37459988E-05  3.49821311E-05 -5.71571055E-04 -2.53883087E-04
 -2.26336155E-04 -5.21810213E-05  1.91713642E-05  1.06783209E-05  1.72605416E-05
  6.71028336E-07 -6.62422213E-07  3.39216897E-06 -9.88053486E-05  9.63887564E-06
  6.31823661E-03 -1.53775689E-04 -1.93793747E-05  3.53871197E-05 -6.42441227E-06
 -5.37707706E-04 -1.67844073E-04  8.20357880E-04  1.92278898E-03 -5.06787402E-04
 -1.06328864E-03  4.61431020E-05  2.54998730E-06  2.13608329E-05 -4.56897995E-05
  2.13600105E-05 -1.23811152E-04  3.16741416E-04  3.00344303E-04  3.84374899E-04
 -7.15245309E-05 -1.14284814E-03  9.41137751E-04 -4.33669342E-04  1.01072877E-04
  4.22118333E-04  3.40153860E-05  1.66398092E-05  6.71182887E-06 -4.18144162E-05
  3.92041323E-05 -3.79097853E-06 -8.12805375E-06  1.05299318E-05 -2.72936651E-05
 -7.08627370E-05 -7.37128215E-05  3.33248534E-04  4.75106863E-04  6.29721291E-06
  5.26238671E-06  6.80803358E-06 -1.54354231E-05 -2.02604024E-05 -2.90191422E-05
 -5.01410566E-05  2.94122249E-05  6.61640999E-05  5.75444070E-04  1.17594235E-04
 -1.42367933E-04  2.45412916E-03  4.08537128E-05  3.02157111E-04  1.63251783E-04
  5.87574366E-05  1.99439336E-04 -2.19684259E-06 -8.23682812E-06 -2.39589984E-06
 -4.33271442E-06 -5.31755660E-06  1.36368153E-05  2.35070520E-05  7.31688504E-06
  1.40964071E-05  2.74961327E-05 -2.84320209E-04  1.10998500E-04 -6.23856836E-06
  3.75304158E-04  3.34090724E-04  4.59323938E-04  2.24990507E-04 -1.65305411E-06
  1.02605378E-04  7.91949065E-04 -9.23608783E-05 -7.86882163E-06  6.21001102E-06
  9.16331016E-05  9.39720115E-05  3.78179270E-05 -9.25297452E-06  2.00036405E-05
  5.60148916E-04 -2.50683858E-03 -2.48048166E-05  8.30927709E-06  2.13014400E-05
 -9.54666308E-05 -2.23892403E-04  1.03343080E-04  2.51153657E-04 -6.20149849E-05
 -8.32850401E-04 -2.32531576E-05 -2.81094982E-05 -8.04430704E-06  2.70676692E-06
 -8.45538215E-06  8.31922234E-05 -1.06902581E-03  3.47112411E-04  2.79299883E-05
 -1.21662338E-05  1.20348326E-05 -2.46323335E-04  2.62953095E-04  3.91141161E-04
 -1.48074462E-03 -2.29638234E-05  2.85513384E-04 -1.51347118E-05  1.99181056E-05
 -3.77956850E-05 -1.02259661E-05  2.91329473E-05  1.54016018E-05 -1.27165731E-05
 -1.40434368E-03  1.05747785E-02 -4.05843050E-02 -3.95270454E-03  2.13374644E-04
  9.72474750E-05 -2.61435269E-04  3.52593780E-03  2.77335936E-03 -5.06882420E-03
 -8.27530955E-03 -8.35643069E-03  1.72519729E-02  5.76499963E-05 -1.85484436E-04
 -1.23738938E-04  9.14832958E-05  1.47287202E-04  9.87430226E-04 -2.06920570E-03
 -1.45513138E-03  1.76584302E-04  8.51762131E-04 -2.17999301E-03  3.09308143E-03
  3.14732143E-03 -7.29117245E-04 -1.93584482E-03 -2.44953746E-05  3.58522234E-05
  2.54750665E-05  1.96292719E-05 -1.26265016E-05  8.18966331E-06  3.89786864E-05
  4.35383383E-01  6.39487434E-01  3.67172797E-02 -3.59983480E-02  4.94650689E-02
  5.04591616E-03 -1.40658832E-03 -9.37449546E-04  1.71586331E-03  4.54366418E-03
  3.00287412E-03 -5.59149538E-03 -9.20394294E-03 -5.14980528E-03  9.43856643E-03
 -5.30275494E-04 -3.69524622E-04  5.41601179E-04  9.04849890E-05 -2.76427757E-04
 -1.68569508E-04  1.42003346E-05  1.09395942E-04 -6.21206797E-04  1.66161884E-03
  1.06886469E-03 -2.67078836E-04 -8.28500336E-04  7.84454514E-05 -1.16772329E-03
 -4.93433124E-04  4.56729767E-04  7.39515595E-04  6.09394078E-05  1.87677025E-04