 Entering Gaussian System, Link 0=g09
 Input=ts-irc-F.com
 Output=ts-irc-F.log
 Initial command:
 /Users/talipovmr/usr/local/g09/l1.exe /tmp/Gau-97980.inp -scrdir=/tmp/
 Entering Link 1 = /Users/talipovmr/usr/local/g09/l1.exe PID=     97981.
  
 Copyright (c) 1988,1990,1992,1993,1995,1998,2003,2009, Gaussian, Inc.
                  All Rights Reserved.
  
 This is part of the Gaussian(R) 09 program.  It is based on
 the Gaussian(R) 03 system (copyright 2003, Gaussian, Inc.),
 the Gaussian(R) 98 system (copyright 1998, Gaussian, Inc.),
 the Gaussian(R) 94 system (copyright 1995, Gaussian, Inc.),
 the Gaussian 92(TM) system (copyright 1992, Gaussian, Inc.),
 the Gaussian 90(TM) system (copyright 1990, Gaussian, Inc.),
 the Gaussian 88(TM) system (copyright 1988, Gaussian, Inc.),
 the Gaussian 86(TM) system (copyright 1986, Carnegie Mellon
 University), and the Gaussian 82(TM) system (copyright 1983,
 Carnegie Mellon University). Gaussian is a federally registered
 trademark of Gaussian, Inc.
  
 This software contains proprietary and confidential information,
 including trade secrets, belonging to Gaussian, Inc.
  
 This software is provided under written license and may be
 used, copied, transmitted, or stored only in accord with that
 written license.
  
 The following legend is applicable only to US Government
 contracts under FAR:
  
                    RESTRICTED RIGHTS LEGEND
  
 Use, reproduction and disclosure by the US Government is
 subject to restrictions as set forth in subparagraphs (a)
 and (c) of the Commercial Computer Software - Restricted
 Rights clause in FAR 52.227-19.
  
 Gaussian, Inc.
 340 Quinnipiac St., Bldg. 40, Wallingford CT 06492
  
  
 ---------------------------------------------------------------
 Warning -- This program may not be used in any manner that
 competes with the business of Gaussian, Inc. or will provide
 assistance to any competitor of Gaussian, Inc.  The licensee
 of this program is prohibited from giving any competitor of
 Gaussian, Inc. access to this program.  By using this program,
 the user acknowledges that Gaussian, Inc. is engaged in the
 business of creating and licensing software in the field of
 computational chemistry and represents and warrants to the
 licensee that it is not a competitor of Gaussian, Inc. and that
 it will not use this program in any manner prohibited above.
 ---------------------------------------------------------------
  

 Cite this work as:
 Gaussian 09, Revision A.02,
 M. J. Frisch, G. W. Trucks, H. B. Schlegel, G. E. Scuseria, 
 M. A. Robb, J. R. Cheeseman, G. Scalmani, V. Barone, B. Mennucci, 
 G. A. Petersson, H. Nakatsuji, M. Caricato, X. Li, H. P. Hratchian, 
 A. F. Izmaylov, J. Bloino, G. Zheng, J. L. Sonnenberg, M. Hada, 
 M. Ehara, K. Toyota, R. Fukuda, J. Hasegawa, M. Ishida, T. Nakajima, 
 Y. Honda, O. Kitao, H. Nakai, T. Vreven, J. A. Montgomery, Jr., 
 J. E. Peralta, F. Ogliaro, M. Bearpark, J. J. Heyd, E. Brothers, 
 K. N. Kudin, V. N. Staroverov, R. Kobayashi, J. Normand, 
 K. Raghavachari, A. Rendell, J. C. Burant, S. S. Iyengar, J. Tomasi, 
 M. Cossi, N. Rega, J. M. Millam, M. Klene, J. E. Knox, J. B. Cross, 
 V. Bakken, C. Adamo, J. Jaramillo, R. Gomperts, R. E. Stratmann, 
 O. Yazyev, A. J. Austin, R. Cammi, C. Pomelli, J. W. Ochterski, 
 R. L. Martin, K. Morokuma, V. G. Zakrzewski, G. A. Voth, 
 P. Salvador, J. J. Dannenberg, S. Dapprich, A. D. Daniels, 
 O. Farkas, J. B. Foresman, J. V. Ortiz, J. Cioslowski, 
 and D. J. Fox, Gaussian, Inc., Wallingford CT, 2009.
 
 ******************************************
 Gaussian 09:  EM64M-G09RevA.02 11-Jun-2009
                 7-Jan-2013 
 ******************************************
 %nproc=2
 Will use up to    2 processors via shared memory.
 %mem=1Gb
 %chk=ts-irc-F.chk
 ----------------------------------------------------------------------
 #p pm3 irc(dvv,calcfc,forward,maxpoint=200,stepsize=5,maxcyc=200) scf(
 xqc,maxcyc=200,fermi) #p geom(allcheck)
 ----------------------------------------------------------------------
 1/6=200,10=4,14=-1,18=20,22=1,26=1,29=7,38=1,39=5,42=200,44=3,45=5/1,23;
 2/9=110,12=2,29=1,40=1/2;
 3/5=2,14=-4,16=1,25=1,41=800000,71=2/1,2,3;
 4/35=1/1;
 5/5=2,7=200,8=3,13=1,22=13,35=1,38=5/2,8;
 8/6=4,10=90,11=11/1;
 11/6=1,8=1,9=11,15=111,16=1/1,2,10;
 10/6=1,7=6,13=1/2;
 6/7=2,8=2,9=2,10=2,28=1/1;
 7/10=1,18=20,25=1/1,2,3,16;
 1/6=200,10=4,14=-1,18=20,22=1,39=5,42=200,44=3,45=5/23(3);
 2/9=110,29=1/2;
 7/9=1,25=1,44=-1/16;
 99//99;
 2/9=110,29=1/2;
 3/5=2,14=-2,16=1,25=1,41=800000,71=2,135=20/1,2,3;
 4/5=5,16=3,35=1/1;
 5/5=2,7=200,8=3,13=1,22=13,35=1,38=5/2,8;
 8/6=4,10=90,11=11/1;
 11/6=1,8=1,9=11,15=111,16=1/1,2,10;
 10/6=1,7=6,13=1/2;
 7/10=1,18=20,25=1/1,2,3,16;
 1/6=200,14=-1,18=20,22=1,39=5,42=200,44=3,45=5/23(-8);
 2/9=110,29=1/2;
 6/7=2,8=2,9=2,10=2,19=2,28=1/1;
 7/9=1,25=1,44=-1/16;
 99/9=1/99;
 Leave Link    1 at Mon Jan  7 22:17:53 2013, MaxMem=  134217728 cpu:       0.3
 (Enter /Users/talipovmr/usr/local/g09/l101.exe)

 

 Redundant internal coordinates taken from checkpoint file:
 ts-irc-F.chk
 Charge =  0 Multiplicity = 1
 O,0,0.9151932448,-0.5584056197,-0.0212396942
 N,0,-0.0062113131,0.5204705166,0.0421643833
 O,0,-1.1048476843,0.1460323548,-0.0303104899
 H,0,0.9600757526,-0.8086172517,-0.9360541991
 Recover connectivity data from disk.
                    Isotopes and Nuclear Properties:
 (Nuclear quadrupole moments (NQMom) in fm**2, nuclear magnetic moments (NMagM)
  in nuclear magnetons)

  Atom         1           2           3           4
 IAtWgt=          16          14          16           1
 AtmWgt=  15.9949146  14.0030740  15.9949146   1.0078250
 NucSpn=           0           2           0           1
 AtZEff=  -6.0000000  -4.9000000  -6.0000000  -1.0000000
 NQMom=    0.0000000   2.0440000   0.0000000   0.0000000
 NMagM=    0.0000000   0.4037610   0.0000000   2.7928460
 Leave Link  101 at Mon Jan  7 22:17:53 2013, MaxMem=  134217728 cpu:       0.2
 (Enter /Users/talipovmr/usr/local/g09/l123.exe)
 IRC-IRC-IRC-IRC-IRC-IRC-IRC-IRC-IRC-IRC-IRC-IRC-IRC-IRC-IRC-IRC-IRC-IRC
 ------------------------------------------------------------------------
 INPUT DATA FOR L123
 ------------------------------------------------------------------------
 GENERAL PARAMETERS:
 Rxn path following direction = Forward
 Maximum points per path      = 200
 Step size                    =   0.050 fs
 Integration scheme           = DVV                                 
 Hessian evaluation           = Gradient only (Hessian at TS only).
 ------------------------------------------------------------------------
 IRC-IRC-IRC-IRC-IRC-IRC-IRC-IRC-IRC-IRC-IRC-IRC-IRC-IRC-IRC-IRC-IRC-IRC
 Leave Link  123 at Mon Jan  7 22:17:53 2013, MaxMem=  134217728 cpu:       0.0
 (Enter /Users/talipovmr/usr/local/g09/l202.exe)
                          Input orientation:                          
 ---------------------------------------------------------------------
 Center     Atomic      Atomic             Coordinates (Angstroms)
 Number     Number       Type             X           Y           Z
 ---------------------------------------------------------------------
      1          8           0        0.915193   -0.558406   -0.021240
      2          7           0       -0.006211    0.520471    0.042164
      3          8           0       -1.104848    0.146032   -0.030310
      4          1           0        0.960076   -0.808617   -0.936054
 ---------------------------------------------------------------------
                    Distance matrix (angstroms):
                    1          2          3          4
     1  O    0.000000
     2  N    1.420204   0.000000
     3  O    2.139365   1.162952   0.000000
     4  H    0.949477   1.912354   2.448599   0.000000
 Symmetry turned off by external request.
 Stoichiometry    HNO2
 Framework group  C1[X(HNO2)]
 Deg. of freedom     6
 Full point group                 C1      NOp   1
 Rotational constants (GHZ):     84.7790842     12.8973878     11.5590697
 Leave Link  202 at Mon Jan  7 22:17:53 2013, MaxMem=  134217728 cpu:       0.0
 (Enter /Users/talipovmr/usr/local/g09/l301.exe)
 Standard basis: VSTO-6G (5D, 7F)
 Ernie: Thresh=  0.10000D-02 Tol=  0.10000D-05 Strict=F.
  NNHCO=     0 NNPyr=     0 NCTC=     0               EPep=         0.000000000
    EC=        32.006924313  ECS=         1.102226562   EG=         0.088715345
   EHC=         0.000000000  EAt=       -27.538897446  AtH=         0.452933404
 EPDDG=         0.000000000  ECC=        33.197866221 EAtT=        27.991830850
 Integral buffers will be    131072 words long.
 Regular integral format.
 Two-electron integral symmetry is turned off.
    13 basis functions,    78 primitive gaussians,    13 cartesian basis functions
     9 alpha electrons        9 beta electrons
       nuclear repulsion energy        61.1896970714 Hartrees.
 IExCor=    0 DFT=F Ex=HF Corr=None ExCW=0 ScaHFX=  1.000000
 ScaDFX=  1.000000  1.000000  1.000000  1.000000 ScalE2=  1.000000  1.000000
 IRadAn=      0 IRanWt=     -1 IRanGd=            0 ICorTp=0
 Leave Link  301 at Mon Jan  7 22:17:53 2013, MaxMem=  134217728 cpu:       0.1
 (Enter /Users/talipovmr/usr/local/g09/l302.exe)
 Do NDO integrals.
 NPDir=0 NMtPBC=     1 NCelOv=     1 NCel=       1 NClECP=     1 NCelD=      1
         NCelK=      1 NCelE2=     1 NClLst=     1 CellRange=     0.0.
 One-electron integrals computed using PRISM.
 NBasis=    13 RedAO= F  NBF=    13
 NBsUse=    13 1.00D-04 NBFU=    13
 Leave Link  302 at Mon Jan  7 22:17:53 2013, MaxMem=  134217728 cpu:       0.2
 (Enter /Users/talipovmr/usr/local/g09/l303.exe)
 DipDrv:  MaxL=1.
 Leave Link  303 at Mon Jan  7 22:17:53 2013, MaxMem=  134217728 cpu:       0.1
 (Enter /Users/talipovmr/usr/local/g09/l401.exe)
 Simple Huckel Guess.
 Leave Link  401 at Mon Jan  7 22:17:53 2013, MaxMem=  134217728 cpu:       0.1
 (Enter /Users/talipovmr/usr/local/g09/l502.exe)
 Closed shell SCF:
 Requested convergence on RMS density matrix=1.00D-08 within 128 cycles.
 Requested convergence on MAX density matrix=1.00D-06.
 Requested convergence on             energy=1.00D-06.
 Level shift goal  0.100 maximum shift  0.100.
 No special actions if energy rises.
 Dynamic level shift is on during FON iterations.
 Using DIIS extrapolation, IDIIS=    10.
 Overlap will be assumed to be unity.
 Two-electron integral symmetry not used.
 Keep J ints in memory in canonical form, NReq=879130.
 IEnd=       78620 IEndB=       78620 NGot=   134217728 MDV=   134155687
 LenX=   134155687 LenY=   134154805
 Symmetry not used in FoFDir.
 MinBra= 0 MaxBra= 1 Meth= 9.
 IRaf=       0 NMat=   1 IRICut=       1 DoRegI=T DoRafI=F ISym2E= 0 JSym2E=0.

 Cycle   1  Pass 1  IDiag  1:
 E= 0.324988625576268    
 DIIS: error= 7.77D-02 at cycle   1 NSaved=   1.
 NSaved= 1 IEnMin= 1 EnMin= 0.324988625576268     IErMin= 1 ErrMin= 7.77D-02
 ErrMax= 7.77D-02 EMaxC= 1.00D+00 BMatC= 1.29D-01 BMatP= 1.29D-01
 IDIUse=1 WtCom= 1.00D+00 WtEn= 0.00D+00
 Coeff-Com:  0.100D+01
 Coeff:      0.100D+01
 Gap=     0.399 Goal=     0.100 Shift=    0.000
 T= 2067. Gap= 0.391 NK=0 IS=    1 IE=   13
          NO(<0.9)=   0  NV(>0.1)=   0   9.00e < EF 0.00e >EF  Err=1.4D-13
 GapD=    0.399 DampG=1.000 DampE=0.500 DampFc=0.5000 IDamp=-1.
 Damping current iteration by 5.00D-01
 RMSDP=3.81D-02 MaxDP=1.61D-01              OVMax= 0.00D+00

 Cycle   2  Pass 1  IDiag  1:
 E= 0.186634252692628     Delta-E=       -0.138354372884 Rises=F Damp=T
 DIIS: error= 4.66D-02 at cycle   2 NSaved=   2.
 NSaved= 2 IEnMin= 2 EnMin= 0.186634252692628     IErMin= 2 ErrMin= 4.66D-02
 ErrMax= 4.66D-02 EMaxC= 1.00D+00 BMatC= 5.00D-02 BMatP= 1.29D-01
 IDIUse=1 WtCom= 1.00D+00 WtEn= 0.00D+00
 Coeff-Com: -0.160D+01 0.260D+01
 Coeff:     -0.160D+01 0.260D+01
 Gap=     0.388 Goal=     0.100 Shift=    0.000
 T= 1981. Gap= 0.382 NK=0 IS=    1 IE=   13
          NO(<0.9)=   0  NV(>0.1)=   0   9.00e < EF 0.00e >EF  Err=4.6D-12
 GapD=    0.388 DampG=1.000 DampE=0.500 DampFc=0.5000 IDamp=-1.
 Damping current iteration by 5.00D-01
 RMSDP=3.23D-02 MaxDP=1.20D-01 DE=-1.38D-01 OVMax= 0.00D+00

 Cycle   3  Pass 1  IDiag  1:
 E= 0.100185488618294     Delta-E=       -0.086448764074 Rises=F Damp=T
 DIIS: error= 2.32D-02 at cycle   3 NSaved=   3.
 NSaved= 3 IEnMin= 3 EnMin= 0.100185488618294     IErMin= 3 ErrMin= 2.32D-02
 ErrMax= 2.32D-02 EMaxC= 1.00D+00 BMatC= 1.31D-02 BMatP= 5.00D-02
 IDIUse=1 WtCom= 1.00D+00 WtEn= 0.00D+00
 Coeff-Com:  0.839D+00-0.291D+01 0.307D+01
 Coeff:      0.839D+00-0.291D+01 0.307D+01
 Gap=     0.384 Goal=     0.100 Shift=    0.000
 T= 1793. Gap= 0.384 NK=0 IS=    1 IE=   13
          NO(<0.9)=   0  NV(>0.1)=   0   9.00e < EF 0.00e >EF  Err=7.3D-11
 GapD=    0.384 DampG=1.000 DampE=0.500 DampFc=0.5000 IDamp=-1.
 Damping current iteration by 5.00D-01
 RMSDP=1.89D-02 MaxDP=6.46D-02 DE=-8.64D-02 OVMax= 0.00D+00

 Cycle   4  Pass 1  IDiag  1:
 E= 0.484087429891531E-01 Delta-E=       -0.051776745629 Rises=F Damp=T
 DIIS: error= 1.15D-02 at cycle   4 NSaved=   4.
 NSaved= 4 IEnMin= 4 EnMin= 0.484087429891531E-01 IErMin= 4 ErrMin= 1.15D-02
 ErrMax= 1.15D-02 EMaxC= 1.00D+00 BMatC= 3.26D-03 BMatP= 1.31D-02
 IDIUse=1 WtCom= 1.00D+00 WtEn= 0.00D+00
 Coeff-Com:  0.323D-02 0.174D+00-0.152D+01 0.234D+01
 Coeff:      0.323D-02 0.174D+00-0.152D+01 0.234D+01
 Gap=     0.384 Goal=     0.100 Shift=    0.000
 T= 1436. Gap= 0.384 NK=0 IS=    1 IE=   13
          NO(<0.9)=   0  NV(>0.1)=   0   9.00e < EF 0.00e >EF  Err=1.4D-13
 GapD=    0.384 DampG=1.000 DampE=0.500 DampFc=0.5000 IDamp=-1.
 Damping current iteration by 5.00D-01
 RMSDP=9.88D-03 MaxDP=3.27D-02 DE=-5.18D-02 OVMax= 0.00D+00

 Cycle   5  Pass 1  IDiag  1:
 E= 0.193794477156430E-01 Delta-E=       -0.029029295274 Rises=F Damp=T
 DIIS: error= 5.75D-03 at cycle   5 NSaved=   5.
 NSaved= 5 IEnMin= 5 EnMin= 0.193794477156430E-01 IErMin= 5 ErrMin= 5.75D-03
 ErrMax= 5.75D-03 EMaxC= 1.00D+00 BMatC= 8.14D-04 BMatP= 3.26D-03
 IDIUse=1 WtCom= 1.00D+00 WtEn= 0.00D+00
 Coeff-Com: -0.294D-01 0.457D-01 0.400D+00-0.218D+01 0.276D+01
 Coeff:     -0.294D-01 0.457D-01 0.400D+00-0.218D+01 0.276D+01
 Gap=     0.384 Goal=     0.100 Shift=    0.000
 T= 1017. Gap= 0.384 NK=0 IS=    1 IE=   13
          NO(<0.9)=   0  NV(>0.1)=   0   9.00e < EF 0.00e >EF  Err=0.0D+00
 GapD=    0.384 DampG=1.000 DampE=1.000 DampFc=1.0000 IDamp=-1.
 RMSDP=5.02D-03 MaxDP=1.64D-02 DE=-2.90D-02 OVMax= 0.00D+00

 Cycle   6  Pass 1  IDiag  3:
 E=-0.120179498795281E-01 Delta-E=       -0.031397397595 Rises=F Damp=F
 DIIS: error= 1.33D-04 at cycle   6 NSaved=   6.
 NSaved= 6 IEnMin= 6 EnMin=-0.120179498795281E-01 IErMin= 6 ErrMin= 1.33D-04
 ErrMax= 1.33D-04 EMaxC= 1.00D+00 BMatC= 2.04D-07 BMatP= 8.14D-04
 IDIUse=1 WtCom= 1.00D+00 WtEn= 0.00D+00
 Coeff-Com:  0.107D-01-0.219D-01-0.133D+00 0.118D+01-0.179D+01 0.176D+01
 Coeff:      0.107D-01-0.219D-01-0.133D+00 0.118D+01-0.179D+01 0.176D+01
 Gap=     0.384 Goal=     0.100 Shift=    0.000
 RMSDP=2.27D-04 MaxDP=1.11D-03 DE=-3.14D-02 OVMax= 0.00D+00

 Cycle   7  Pass 1  IDiag  3:
 E=-0.120206130910461E-01 Delta-E=       -0.000002663212 Rises=F Damp=F
 DIIS: error= 6.77D-05 at cycle   7 NSaved=   7.
 NSaved= 7 IEnMin= 7 EnMin=-0.120206130910461E-01 IErMin= 7 ErrMin= 6.77D-05
 ErrMax= 6.77D-05 EMaxC= 1.00D+00 BMatC= 4.98D-08 BMatP= 2.04D-07
 IDIUse=1 WtCom= 1.00D+00 WtEn= 0.00D+00
 Coeff-Com: -0.351D-03-0.399D-03 0.576D-01-0.550D+00 0.882D+00-0.132D+01
 Coeff-Com:  0.193D+01
 Coeff:     -0.351D-03-0.399D-03 0.576D-01-0.550D+00 0.882D+00-0.132D+01
 Coeff:      0.193D+01
 Gap=     0.384 Goal=     0.100 Shift=    0.000
 RMSDP=1.55D-04 MaxDP=7.96D-04 DE=-2.66D-06 OVMax= 0.00D+00

 Cycle   8  Pass 1  IDiag  3:
 E=-0.120214847537525E-01 Delta-E=       -0.000000871663 Rises=F Damp=F
 DIIS: error= 2.67D-05 at cycle   8 NSaved=   8.
 NSaved= 8 IEnMin= 8 EnMin=-0.120214847537525E-01 IErMin= 8 ErrMin= 2.67D-05
 ErrMax= 2.67D-05 EMaxC= 1.00D+00 BMatC= 1.10D-08 BMatP= 4.98D-08
 IDIUse=1 WtCom= 1.00D+00 WtEn= 0.00D+00
 Coeff-Com: -0.359D-04-0.123D-02-0.189D-01 0.231D+00-0.378D+00 0.661D+00
 Coeff-Com: -0.150D+01 0.201D+01
 Coeff:     -0.359D-04-0.123D-02-0.189D-01 0.231D+00-0.378D+00 0.661D+00
 Coeff:     -0.150D+01 0.201D+01
 Gap=     0.384 Goal=     0.100 Shift=    0.000
 RMSDP=9.24D-05 MaxDP=4.49D-04 DE=-8.72D-07 OVMax= 0.00D+00

 Cycle   9  Pass 1  IDiag  3:
 E=-0.120216935048987E-01 Delta-E=       -0.000000208751 Rises=F Damp=F
 DIIS: error= 5.35D-06 at cycle   9 NSaved=   9.
 NSaved= 9 IEnMin= 9 EnMin=-0.120216935048987E-01 IErMin= 9 ErrMin= 5.35D-06
 ErrMax= 5.35D-06 EMaxC= 1.00D+00 BMatC= 1.29D-09 BMatP= 1.10D-08
 IDIUse=1 WtCom= 1.00D+00 WtEn= 0.00D+00
 Coeff-Com:  0.140D-03 0.987D-03 0.425D-02-0.675D-01 0.109D+00-0.223D+00
 Coeff-Com:  0.675D+00-0.132D+01 0.182D+01
 Coeff:      0.140D-03 0.987D-03 0.425D-02-0.675D-01 0.109D+00-0.223D+00
 Coeff:      0.675D+00-0.132D+01 0.182D+01
 Gap=     0.384 Goal=     0.100 Shift=    0.000
 RMSDP=2.90D-05 MaxDP=1.20D-04 DE=-2.09D-07 OVMax= 0.00D+00

 Cycle  10  Pass 1  IDiag  3:
 E=-0.120217123300108E-01 Delta-E=       -0.000000018825 Rises=F Damp=F
 DIIS: error= 1.41D-06 at cycle  10 NSaved=  10.
 NSaved=10 IEnMin=10 EnMin=-0.120217123300108E-01 IErMin=10 ErrMin= 1.41D-06
 ErrMax= 1.41D-06 EMaxC= 1.00D+00 BMatC= 7.73D-11 BMatP= 1.29D-09
 IDIUse=1 WtCom= 1.00D+00 WtEn= 0.00D+00
 Coeff-Com:  0.144D-03-0.115D-02-0.786D-03 0.282D-01-0.464D-01 0.873D-01
 Coeff-Com: -0.254D+00 0.526D+00-0.930D+00 0.159D+01
 Coeff:      0.144D-03-0.115D-02-0.786D-03 0.282D-01-0.464D-01 0.873D-01
 Coeff:     -0.254D+00 0.526D+00-0.930D+00 0.159D+01
 Gap=     0.384 Goal=     0.100 Shift=    0.000
 RMSDP=4.53D-06 MaxDP=1.55D-05 DE=-1.88D-08 OVMax= 0.00D+00

 Cycle  11  Pass 1  IDiag  3:
 E=-0.120217130332776E-01 Delta-E=       -0.000000000703 Rises=F Damp=F
 DIIS: error= 3.08D-07 at cycle  11 NSaved=  11.
 NSaved=11 IEnMin=11 EnMin=-0.120217130332776E-01 IErMin=11 ErrMin= 3.08D-07
 ErrMax= 3.08D-07 EMaxC= 1.00D+00 BMatC= 3.58D-12 BMatP= 7.73D-11
 IDIUse=1 WtCom= 1.00D+00 WtEn= 0.00D+00
 Coeff-Com: -0.866D-04 0.666D-03-0.257D-03-0.100D-01 0.170D-01-0.352D-01
 Coeff-Com:  0.112D+00-0.248D+00 0.465D+00-0.924D+00 0.162D+01
 Coeff:     -0.866D-04 0.666D-03-0.257D-03-0.100D-01 0.170D-01-0.352D-01
 Coeff:      0.112D+00-0.248D+00 0.465D+00-0.924D+00 0.162D+01
 Gap=     0.384 Goal=     0.100 Shift=    0.000
 RMSDP=8.34D-07 MaxDP=2.88D-06 DE=-7.03D-10 OVMax= 0.00D+00

 Cycle  12  Pass 1  IDiag  3:
 E=-0.120217130614932E-01 Delta-E=       -0.000000000028 Rises=F Damp=F
 DIIS: error= 8.33D-08 at cycle  12 NSaved=  12.
 NSaved=12 IEnMin=12 EnMin=-0.120217130614932E-01 IErMin=12 ErrMin= 8.33D-08
 ErrMax= 8.33D-08 EMaxC= 1.00D+00 BMatC= 1.84D-13 BMatP= 3.58D-12
 IDIUse=1 WtCom= 1.00D+00 WtEn= 0.00D+00
 Coeff-Com:  0.272D-04-0.220D-03 0.253D-03 0.175D-02-0.317D-02 0.804D-02
 Coeff-Com: -0.299D-01 0.732D-01-0.148D+00 0.318D+00-0.717D+00 0.150D+01
 Coeff:      0.272D-04-0.220D-03 0.253D-03 0.175D-02-0.317D-02 0.804D-02
 Coeff:     -0.299D-01 0.732D-01-0.148D+00 0.318D+00-0.717D+00 0.150D+01
 Gap=     0.384 Goal=     0.100 Shift=    0.000
 RMSDP=1.59D-07 MaxDP=5.35D-07 DE=-2.82D-11 OVMax= 0.00D+00

 Cycle  13  Pass 1  IDiag  3:
 E=-0.120217130628504E-01 Delta-E=       -0.000000000001 Rises=F Damp=F
 DIIS: error= 2.56D-08 at cycle  13 NSaved=  13.
 NSaved=13 IEnMin=13 EnMin=-0.120217130628504E-01 IErMin=13 ErrMin= 2.56D-08
 ErrMax= 2.56D-08 EMaxC= 1.00D+00 BMatC= 1.29D-14 BMatP= 1.84D-13
 IDIUse=1 WtCom= 1.00D+00 WtEn= 0.00D+00
 Coeff-Com: -0.140D-04 0.106D-03-0.106D-03-0.971D-03 0.173D-02-0.416D-02
 Coeff-Com:  0.145D-01-0.341D-01 0.683D-01-0.146D+00 0.334D+00-0.868D+00
 Coeff-Com:  0.163D+01
 Coeff:     -0.140D-04 0.106D-03-0.106D-03-0.971D-03 0.173D-02-0.416D-02
 Coeff:      0.145D-01-0.341D-01 0.683D-01-0.146D+00 0.334D+00-0.868D+00
 Coeff:      0.163D+01
 Gap=     0.384 Goal=     0.100 Shift=    0.000
 RMSDP=4.23D-08 MaxDP=1.92D-07 DE=-1.36D-12 OVMax= 0.00D+00

 Cycle  14  Pass 1  IDiag  3:
 E=-0.120217130629854E-01 Delta-E=        0.000000000000 Rises=F Damp=F
 DIIS: error= 2.84D-09 at cycle  14 NSaved=  14.
 NSaved=14 IEnMin=14 EnMin=-0.120217130629854E-01 IErMin=14 ErrMin= 2.84D-09
 ErrMax= 2.84D-09 EMaxC= 1.00D+00 BMatC= 4.76D-16 BMatP= 1.29D-14
 IDIUse=1 WtCom= 1.00D+00 WtEn= 0.00D+00
 Coeff-Com:  0.574D-06-0.476D-05 0.168D-05 0.598D-04-0.967D-04 0.263D-03
 Coeff-Com: -0.843D-03 0.182D-02-0.370D-02 0.806D-02-0.225D-01 0.109D+00
 Coeff-Com: -0.396D+00 0.130D+01
 Coeff:      0.574D-06-0.476D-05 0.168D-05 0.598D-04-0.967D-04 0.263D-03
 Coeff:     -0.843D-03 0.182D-02-0.370D-02 0.806D-02-0.225D-01 0.109D+00
 Coeff:     -0.396D+00 0.130D+01
 Gap=     0.384 Goal=     0.100 Shift=    0.000
 RMSDP=5.92D-09 MaxDP=1.74D-08 DE=-1.35D-13 OVMax= 0.00D+00

 Cycle  15  Pass 2  IDiag  1:
 Gap=     0.384 Goal=     0.100 Shift=    0.000
 RMSDP=5.92D-09 MaxDP=1.74D-08 DE=-1.35D-13 OVMax= 0.00D+00

 SCF Done:  E(RPM3) = -0.120217130630E-01 A.U. after   15 cycles
             Convg  =    0.5923D-08             -V/T =  0.9997
 KE=-4.668504826780D+01 PE=-6.179822900778D+01 EE= 4.728155849111D+01
 Leave Link  502 at Mon Jan  7 22:17:53 2013, MaxMem=  134217728 cpu:       0.1
 (Enter /Users/talipovmr/usr/local/g09/l508.exe)
 QCSCF skips out because SCF is already converged.
 Leave Link  508 at Mon Jan  7 22:17:53 2013, MaxMem=  134217728 cpu:       0.0
 (Enter /Users/talipovmr/usr/local/g09/l801.exe)
 Range of M.O.s used for correlation:     1    13
 NBasis=    13 NAE=     9 NBE=     9 NFC=     0 NFV=     0
 NROrb=     13 NOA=     9 NOB=     9 NVA=     4 NVB=     4
 Leave Link  801 at Mon Jan  7 22:17:53 2013, MaxMem=  134217728 cpu:       0.1
 (Enter /Users/talipovmr/usr/local/g09/l1101.exe)
 Using compressed storage, NAtomX=     4.
 Will process   5 centers per pass.
 Leave Link 1101 at Mon Jan  7 22:17:53 2013, MaxMem=  134217728 cpu:       0.1
 (Enter /Users/talipovmr/usr/local/g09/l1102.exe)
 Symmetrizing basis deriv contribution to polar:
 IMax=3 JMax=2 DiffMx= 0.00D+00
 Leave Link 1102 at Mon Jan  7 22:17:54 2013, MaxMem=  134217728 cpu:       0.1
 (Enter /Users/talipovmr/usr/local/g09/l1110.exe)
 Forming Gx(P) for the SCF density, NAtomX=     4.
 Integral derivatives from FoFDir/FoFCou, PRISM(SPDF).
 Do as many integral derivatives as possible in FoFDir.
 G2DrvN: MDV=     134158701.
 G2DrvN: will do     5 centers at a time, making    1 passes doing MaxLOS=1.
 Calling FoFCou, ICntrl=  3107 FMM=F I1Cent=   0 AccDes= 0.00D+00.
 FoFCou: FMM=F IPFlag=           0 FMFlag=      100000 FMFlg1=           0
         NFxFlg=           0 DoJE=F BraDBF=F KetDBF=F FulRan=T
         Omega=  0.000000  0.000000  1.000000  0.000000  0.000000 ICntrl=    3107 IOpCl=  0
         NMat0=    1 NMatS0=    1 NMatT0=    0 NMatD0=    1 NMtDS0=    0 NMtDT0=    0
         I1Cent=           0 NGrid=           0.
 Symmetry not used in FoFCou.
 FoFDir/FoFCou used for L=0 through L=1.
 End of G2Drv Frequency-dependent properties file   721 does not exist.
 End of G2Drv Frequency-dependent properties file   722 does not exist.
 Leave Link 1110 at Mon Jan  7 22:17:54 2013, MaxMem=  134217728 cpu:       0.1
 (Enter /Users/talipovmr/usr/local/g09/l1002.exe)
 Minotr:  Closed shell wavefunction.
          IDoAtm=1111
          Direct CPHF calculation.
          Differentiating once with respect to nuclear coordinates.
          Electric field/nuclear overlap derivatives assumed to be zero.
          Requested convergence is 1.0D-06 RMS, and 1.0D-05 maximum.
          NewPWx=T KeepS1=F KeepF1=F KeepIn=T MapXYZ=F SortEE=F KeepMc=T.
          MDV=     134158793 using IRadAn=       2.
          Keep J ints in memory in canonical form, NReq=800947.
 Symmetry not used in FoFDir.
 MinBra= 0 MaxBra= 1 Meth= 9.
 IRaf=       0 NMat=   1 IRICut=       1 DoRegI=T DoRafI=F ISym2E= 0 JSym2E=0.
          Solving linear equations separately, MaxMat=       0.
          There are    15 degrees of freedom in the 1st order CPHF.  IDoFFX=5.
 LinEq1:  Iter=  0 NonCon=    12 RMS=6.34D-02 Max=1.93D-01
 AX will form    12 AO Fock derivatives at one time.
 LinEq1:  Iter=  1 NonCon=    12 RMS=9.32D-03 Max=4.49D-02
 LinEq1:  Iter=  2 NonCon=    12 RMS=2.06D-03 Max=6.61D-03
 LinEq1:  Iter=  3 NonCon=    12 RMS=4.24D-04 Max=1.53D-03
 LinEq1:  Iter=  4 NonCon=    12 RMS=9.10D-05 Max=3.00D-04
 LinEq1:  Iter=  5 NonCon=    12 RMS=1.35D-05 Max=3.77D-05
 LinEq1:  Iter=  6 NonCon=     4 RMS=2.19D-06 Max=5.38D-06
 LinEq1:  Iter=  7 NonCon=     0 RMS=1.95D-07 Max=5.54D-07
 Linear equations converged to 1.000D-06 1.000D-05 after     7 iterations.
 End of Minotr Frequency-dependent properties file   721 does not exist.
 End of Minotr Frequency-dependent properties file   722 does not exist.
 Leave Link 1002 at Mon Jan  7 22:17:54 2013, MaxMem=  134217728 cpu:       0.1
 (Enter /Users/talipovmr/usr/local/g09/l601.exe)
 Copying SCF densities to generalized density rwf, IOpCl= 0 IROHF=0.

 **********************************************************************

            Population analysis using the SCF density.

 **********************************************************************

 Alpha  occ. eigenvalues --   -1.41548  -1.30946  -0.84349  -0.71778  -0.65089
 Alpha  occ. eigenvalues --   -0.59601  -0.54977  -0.47698  -0.40021
 Alpha virt. eigenvalues --   -0.01619   0.07956   0.15838   0.22402
          Condensed to atoms (all electrons):
              1          2          3          4
     1  O    6.359897   0.000000   0.000000   0.000000
     2  N    0.000000   4.609856   0.000000   0.000000
     3  O    0.000000   0.000000   6.242831   0.000000
     4  H    0.000000   0.000000   0.000000   0.787416
 Mulliken atomic charges:
              1
     1  O   -0.359897
     2  N    0.390144
     3  O   -0.242831
     4  H    0.212584
 Sum of Mulliken atomic charges =   0.00000
 Mulliken charges with hydrogens summed into heavy atoms:
              1
     1  O   -0.147313
     2  N    0.390144
     3  O   -0.242831
 Sum of Mulliken charges with hydrogens summed into heavy atoms =   0.00000
 APT atomic charges:
              1
     1  O   -0.359897
     2  N    0.390144
     3  O   -0.242831
     4  H    0.212584
 Sum of APT charges=   0.00000
 APT Atomic charges with hydrogens summed into heavy atoms:
              1
     1  O   -0.147313
     2  N    0.390144
     3  O   -0.242831
     4  H    0.000000
 Sum of APT charges=   0.00000
 Charge=              0.0000 electrons
 Dipole moment (field-independent basis, Debye):
    X=              0.3283    Y=             -0.1837    Z=             -1.5204  Tot=              1.5663
 N-N= 6.118969707142D+01 E-N=-6.179822900383D+01  KE=-4.668504826780D+01
  Exact polarizability:   0.000   0.000   0.000   0.000   0.000   0.000
 Approx polarizability:  18.094  -2.481   6.086  -0.204   1.151   4.338
 Leave Link  601 at Mon Jan  7 22:17:54 2013, MaxMem=  134217728 cpu:       0.1
 (Enter /Users/talipovmr/usr/local/g09/l701.exe)
 Compute integral second derivatives.
 ... and contract with generalized density number  0.
 Leave Link  701 at Mon Jan  7 22:17:54 2013, MaxMem=  134217728 cpu:       0.1
 (Enter /Users/talipovmr/usr/local/g09/l702.exe)
 L702 exits ... SP integral derivatives will be done elsewhere.
 Leave Link  702 at Mon Jan  7 22:17:54 2013, MaxMem=  134217728 cpu:       0.1
 (Enter /Users/talipovmr/usr/local/g09/l703.exe)
 Compute integral second derivatives, UseDBF=F ICtDFT=           0.
 Integral derivatives from FoFDir, PRISM(SPDF).
 Calling FoFJK, ICntrl=    100147 FMM=F ISym2X=0 I1Cent= 0 IOpClX= 0 NMat=1 NMatS=1 NMatT=0.
 FoFCou: FMM=F IPFlag=           0 FMFlag=      100000 FMFlg1=         800
         NFxFlg=           0 DoJE=F BraDBF=F KetDBF=F FulRan=T
         Omega=  0.000000  0.000000  1.000000  0.000000  0.000000 ICntrl=  100147 IOpCl=  0
         NMat0=    1 NMatS0=    1 NMatT0=    0 NMatD0=    1 NMtDS0=    0 NMtDT0=    0
         I1Cent=           0 NGrid=           0.
 Symmetry not used in FoFCou.
 Leave Link  703 at Mon Jan  7 22:17:54 2013, MaxMem=  134217728 cpu:       0.1
 (Enter /Users/talipovmr/usr/local/g09/l716.exe)
 Dipole        = 1.29179189D-01-7.22596734D-02-5.98188337D-01
 Polarizability= 0.00000000D+00 0.00000000D+00 0.00000000D+00
                 0.00000000D+00 0.00000000D+00 0.00000000D+00
 -------------------------------------------------------------------
 Center     Atomic                   Forces (Hartrees/Bohr)
 Number     Number              X              Y              Z
 -------------------------------------------------------------------
      1        8           0.000057305   -0.000046660   -0.000093715
      2        7          -0.000188386   -0.000029058    0.000007031
      3        8           0.000135662    0.000066204    0.000003097
      4        1          -0.000004581    0.000009514    0.000083587
 -------------------------------------------------------------------
 Cartesian Forces:  Max     0.000188386 RMS     0.000081915
 Force constants in Cartesian coordinates: 
                1             2             3             4             5 
      1  0.135359D+00
      2 -0.900698D-01  0.117711D+00
      3  0.322048D-02  0.121975D+00  0.522399D+00
      4 -0.118290D-01 -0.172578D-01 -0.155381D-01  0.102293D+01
      5  0.426905D-01 -0.117776D+00 -0.177078D-01  0.366618D+00  0.363795D+00
      6 -0.156363D-01 -0.157940D-01 -0.197978D-01  0.611107D-01  0.745022D-01
      7 -0.104475D+00  0.782919D-01  0.145584D-01 -0.101441D+01 -0.422532D+00
      8  0.214863D-01  0.383988D-01  0.850514D-02 -0.359204D+00 -0.213535D+00
      9 -0.124254D-02  0.185126D-01 -0.251143D-02 -0.626682D-01 -0.417716D-01
     10 -0.190400D-01  0.290572D-01 -0.224134D-02  0.328355D-02  0.132001D-01
     11  0.258873D-01 -0.383144D-01 -0.112797D+00  0.981152D-02 -0.325103D-01
     12  0.136638D-01 -0.124672D+00 -0.500080D+00  0.170798D-01 -0.150595D-01
                6             7             8             9            10 
      6  0.214393D-01
      7 -0.766433D-01  0.113564D+01
      8 -0.365059D-01  0.336596D+00  0.172104D+00
      9  0.192446D-02  0.642702D-01  0.299027D-01  0.124694D-02
     10  0.311970D-01 -0.167389D-01  0.111773D-02 -0.371099D-03  0.324850D-01
     11 -0.221737D-01  0.765400D-02  0.303329D-02 -0.666897D-02 -0.433465D-01
     12 -0.356281D-02 -0.217780D-02 -0.188393D-02 -0.663579D-03 -0.285818D-01
               11            12 
     11  0.677964D-01
     12  0.141637D+00  0.504296D+00
 Force constants in internal coordinates: 
                1             2             3             4             5 
      1  0.197449D+00
      2  0.321226D-01  0.548539D+00
      3  0.142623D+00  0.176826D-03  0.124485D+01
      4  0.604999D-01  0.340334D-01  0.294768D-01  0.197113D+00
      5  0.665221D-01  0.310916D-02  0.606631D-01  0.162182D-01  0.327165D+00
      6 -0.655696D-02  0.467667D-02  0.106024D-01  0.188333D-01  0.186643D-01
                6 
      6 -0.157788D-01
 Leave Link  716 at Mon Jan  7 22:17:54 2013, MaxMem=  134217728 cpu:       0.1
 (Enter /Users/talipovmr/usr/local/g09/l123.exe)
 IRC-IRC-IRC-IRC-IRC-IRC-IRC-IRC-IRC-IRC-IRC-IRC-IRC-IRC-IRC-IRC-IRC-IRC
          ******** Start new reaction path calculation ********
 Current Structure is TS -> diagonalize the Hessian.
 Point Number:   0          Path Number:   1
 Calculating another point on the path.
 Point Number  1 in FORWARD path direction.
 Using DVV Reaction Path Following.
 DVV: v0 =  0.0600000
 IRC-IRC-IRC-IRC-IRC-IRC-IRC-IRC-IRC-IRC-IRC-IRC-IRC-IRC-IRC-IRC-IRC-IRC
 Leave Link  123 at Mon Jan  7 22:17:54 2013, MaxMem=  134217728 cpu:       0.0
 (Enter /Users/talipovmr/usr/local/g09/l202.exe)
                          Input orientation:                          
 ---------------------------------------------------------------------
 Center     Atomic      Atomic             Coordinates (Angstroms)
 Number     Number       Type             X           Y           Z
 ---------------------------------------------------------------------
      1          8           0        0.961056   -0.555699    0.003775
      2          7           0        0.039607    0.523030    0.067331
      3          8           0       -1.059047    0.148648   -0.005332
      4          1           0        1.004874   -0.806965   -0.910809
 ---------------------------------------------------------------------
                    Distance matrix (angstroms):
                    1          2          3          4
     1  O    0.000000
     2  N    1.420128   0.000000
     3  O    2.139394   1.162963   0.000000
     4  H    0.949484   1.912429   2.448031   0.000000
 Symmetry turned off by external request.
 Stoichiometry    HNO2
 Framework group  C1[X(HNO2)]
 Deg. of freedom     6
 Full point group                 C1      NOp   1
 Rotational constants (GHZ):     84.7831419     12.8979489     11.5591211
 Leave Link  202 at Mon Jan  7 22:17:54 2013, MaxMem=  134217728 cpu:       0.0
 (Enter /Users/talipovmr/usr/local/g09/l301.exe)
 Standard basis: VSTO-6G (5D, 7F)
 Ernie: Thresh=  0.10000D-02 Tol=  0.10000D-05 Strict=F.
  NNHCO=     0 NNPyr=     0 NCTC=     0               EPep=         0.000000000
    EC=        32.007286619  ECS=         1.102263445   EG=         0.088728265
   EHC=         0.000000000  EAt=       -27.538897446  AtH=         0.452933404
 EPDDG=         0.000000000  ECC=        33.198278329 EAtT=        27.991830850
 Integral buffers will be    131072 words long.
 Regular integral format.
 Two-electron integral symmetry is turned off.
    13 basis functions,    78 primitive gaussians,    13 cartesian basis functions
     9 alpha electrons        9 beta electrons
       nuclear repulsion energy        61.1901091790 Hartrees.
 IExCor=    0 DFT=F Ex=HF Corr=None ExCW=0 ScaHFX=  1.000000
 ScaDFX=  1.000000  1.000000  1.000000  1.000000 ScalE2=  1.000000  1.000000
 IRadAn=      0 IRanWt=     -1 IRanGd=            0 ICorTp=0
 Leave Link  301 at Mon Jan  7 22:17:54 2013, MaxMem=  134217728 cpu:       0.1
 (Enter /Users/talipovmr/usr/local/g09/l302.exe)
 Do NDO integrals.
 NPDir=0 NMtPBC=     1 NCelOv=     1 NCel=       1 NClECP=     1 NCelD=      1
         NCelK=      1 NCelE2=     1 NClLst=     1 CellRange=     0.0.
 One-electron integrals computed using PRISM.
 NBasis=    13 RedAO= F  NBF=    13
 NBsUse=    13 1.00D-04 NBFU=    13
 Leave Link  302 at Mon Jan  7 22:17:54 2013, MaxMem=  134217728 cpu:       0.2
 (Enter /Users/talipovmr/usr/local/g09/l303.exe)
 DipDrv:  MaxL=1.
 Leave Link  303 at Mon Jan  7 22:17:54 2013, MaxMem=  134217728 cpu:       0.1
 (Enter /Users/talipovmr/usr/local/g09/l401.exe)
 Initial guess read from the read-write file.
 B after Tr=     0.000000    0.000000    0.000000
         Rot=    1.000000    0.000000    0.000000    0.000000 Ang=   0.00 deg.
 Guess basis will be translated and rotated to current coordinates.
 Leave Link  401 at Mon Jan  7 22:17:54 2013, MaxMem=  134217728 cpu:       0.2
 (Enter /Users/talipovmr/usr/local/g09/l502.exe)
 Closed shell SCF:
 Requested convergence on RMS density matrix=1.00D-08 within 128 cycles.
 Requested convergence on MAX density matrix=1.00D-06.
 Requested convergence on             energy=1.00D-06.
 Level shift goal  0.100 maximum shift  0.100.
 No special actions if energy rises.
 Dynamic level shift is on during FON iterations.
 Using DIIS extrapolation, IDIIS=    10.
 Overlap will be assumed to be unity.
 Two-electron integral symmetry not used.
 Keep J ints in memory in canonical form, NReq=879130.
 IEnd=       78620 IEndB=       78620 NGot=   134217728 MDV=   134155687
 LenX=   134155687 LenY=   134154805
 Symmetry not used in FoFDir.
 MinBra= 0 MaxBra= 1 Meth= 9.
 IRaf=       0 NMat=   1 IRICut=       1 DoRegI=T DoRafI=F ISym2E= 0 JSym2E=0.

 Cycle   1  Pass 1  IDiag  1:
 E=-0.120212296829862E-01
 DIIS: error= 6.51D-05 at cycle   1 NSaved=   1.
 NSaved= 1 IEnMin= 1 EnMin=-0.120212296829862E-01 IErMin= 1 ErrMin= 6.51D-05
 ErrMax= 6.51D-05 EMaxC= 1.00D+00 BMatC= 7.35D-08 BMatP= 7.35D-08
 IDIUse=1 WtCom= 1.00D+00 WtEn= 0.00D+00
 Coeff-Com:  0.100D+01
 Coeff:      0.100D+01
 Gap=     0.384 Goal=     0.100 Shift=    0.000
 RMSDP=4.55D-05 MaxDP=2.18D-04              OVMax= 0.00D+00

 Cycle   2  Pass 1  IDiag  3:
 E=-0.120215776109447E-01 Delta-E=       -0.000000347928 Rises=F Damp=F
 DIIS: error= 3.93D-05 at cycle   2 NSaved=   2.
 NSaved= 2 IEnMin= 2 EnMin=-0.120215776109447E-01 IErMin= 2 ErrMin= 3.93D-05
 ErrMax= 3.93D-05 EMaxC= 1.00D+00 BMatC= 2.33D-08 BMatP= 7.35D-08
 IDIUse=1 WtCom= 1.00D+00 WtEn= 0.00D+00
 Coeff-Com: -0.107D+01 0.207D+01
 Coeff:     -0.107D+01 0.207D+01
 Gap=     0.384 Goal=     0.100 Shift=    0.000
 RMSDP=5.67D-05 MaxDP=2.73D-04 DE=-3.48D-07 OVMax= 0.00D+00

 Cycle   3  Pass 1  IDiag  3:
 E=-0.120217627598720E-01 Delta-E=       -0.000000185149 Rises=F Damp=F
 DIIS: error= 7.49D-06 at cycle   3 NSaved=   3.
 NSaved= 3 IEnMin= 3 EnMin=-0.120217627598720E-01 IErMin= 3 ErrMin= 7.49D-06
 ErrMax= 7.49D-06 EMaxC= 1.00D+00 BMatC= 1.12D-09 BMatP= 2.33D-08
 IDIUse=1 WtCom= 1.00D+00 WtEn= 0.00D+00
 Coeff-Com:  0.540D+00-0.119D+01 0.165D+01
 Coeff:      0.540D+00-0.119D+01 0.165D+01
 Gap=     0.384 Goal=     0.100 Shift=    0.000
 RMSDP=1.46D-05 MaxDP=5.94D-05 DE=-1.85D-07 OVMax= 0.00D+00

 Cycle   4  Pass 1  IDiag  3:
 E=-0.120217729090584E-01 Delta-E=       -0.000000010149 Rises=F Damp=F
 DIIS: error= 1.66D-06 at cycle   4 NSaved=   4.
 NSaved= 4 IEnMin= 4 EnMin=-0.120217729090584E-01 IErMin= 4 ErrMin= 1.66D-06
 ErrMax= 1.66D-06 EMaxC= 1.00D+00 BMatC= 8.37D-11 BMatP= 1.12D-09
 IDIUse=1 WtCom= 1.00D+00 WtEn= 0.00D+00
 Coeff-Com: -0.402D+00 0.893D+00-0.136D+01 0.187D+01
 Coeff:     -0.402D+00 0.893D+00-0.136D+01 0.187D+01
 Gap=     0.384 Goal=     0.100 Shift=    0.000
 RMSDP=4.38D-06 MaxDP=1.32D-05 DE=-1.01D-08 OVMax= 0.00D+00

 Cycle   5  Pass 1  IDiag  3:
 E=-0.120217738446371E-01 Delta-E=       -0.000000000936 Rises=F Damp=F
 DIIS: error= 1.02D-06 at cycle   5 NSaved=   5.
 NSaved= 5 IEnMin= 5 EnMin=-0.120217738446371E-01 IErMin= 5 ErrMin= 1.02D-06
 ErrMax= 1.02D-06 EMaxC= 1.00D+00 BMatC= 1.40D-11 BMatP= 8.37D-11
 IDIUse=1 WtCom= 1.00D+00 WtEn= 0.00D+00
 Coeff-Com:  0.343D+00-0.765D+00 0.120D+01-0.191D+01 0.213D+01
 Coeff:      0.343D+00-0.765D+00 0.120D+01-0.191D+01 0.213D+01
 Gap=     0.384 Goal=     0.100 Shift=    0.000
 RMSDP=2.52D-06 MaxDP=1.08D-05 DE=-9.36D-10 OVMax= 0.00D+00

 Cycle   6  Pass 1  IDiag  3:
 E=-0.120217740819868E-01 Delta-E=       -0.000000000237 Rises=F Damp=F
 DIIS: error= 5.06D-07 at cycle   6 NSaved=   6.
 NSaved= 6 IEnMin= 6 EnMin=-0.120217740819868E-01 IErMin= 6 ErrMin= 5.06D-07
 ErrMax= 5.06D-07 EMaxC= 1.00D+00 BMatC= 3.00D-12 BMatP= 1.40D-11
 IDIUse=1 WtCom= 1.00D+00 WtEn= 0.00D+00
 Coeff-Com: -0.225D+00 0.503D+00-0.794D+00 0.133D+01-0.198D+01 0.217D+01
 Coeff:     -0.225D+00 0.503D+00-0.794D+00 0.133D+01-0.198D+01 0.217D+01
 Gap=     0.384 Goal=     0.100 Shift=    0.000
 RMSDP=1.58D-06 MaxDP=7.64D-06 DE=-2.37D-10 OVMax= 0.00D+00

 Cycle   7  Pass 1  IDiag  3:
 E=-0.120217741413740E-01 Delta-E=       -0.000000000059 Rises=F Damp=F
 DIIS: error= 1.48D-07 at cycle   7 NSaved=   7.
 NSaved= 7 IEnMin= 7 EnMin=-0.120217741413740E-01 IErMin= 7 ErrMin= 1.48D-07
 ErrMax= 1.48D-07 EMaxC= 1.00D+00 BMatC= 3.46D-13 BMatP= 3.00D-12
 IDIUse=1 WtCom= 1.00D+00 WtEn= 0.00D+00
 Coeff-Com:  0.539D-01-0.120D+00 0.192D+00-0.343D+00 0.637D+00-0.105D+01
 Coeff-Com:  0.164D+01
 Coeff:      0.539D-01-0.120D+00 0.192D+00-0.343D+00 0.637D+00-0.105D+01
 Coeff:      0.164D+01
 Gap=     0.384 Goal=     0.100 Shift=    0.000
 RMSDP=4.36D-07 MaxDP=2.20D-06 DE=-5.94D-11 OVMax= 0.00D+00

 Cycle   8  Pass 1  IDiag  3:
 E=-0.120217741463549E-01 Delta-E=       -0.000000000005 Rises=F Damp=F
 DIIS: error= 3.85D-08 at cycle   8 NSaved=   8.
 NSaved= 8 IEnMin= 8 EnMin=-0.120217741463549E-01 IErMin= 8 ErrMin= 3.85D-08
 ErrMax= 3.85D-08 EMaxC= 1.00D+00 BMatC= 3.94D-14 BMatP= 3.46D-13
 IDIUse=1 WtCom= 1.00D+00 WtEn= 0.00D+00
 Coeff-Com:  0.621D-02-0.138D-01 0.205D-01-0.197D-01-0.378D-01 0.225D+00
 Coeff-Com: -0.857D+00 0.168D+01
 Coeff:      0.621D-02-0.138D-01 0.205D-01-0.197D-01-0.378D-01 0.225D+00
 Coeff:     -0.857D+00 0.168D+01
 Gap=     0.384 Goal=     0.100 Shift=    0.000
 RMSDP=1.24D-07 MaxDP=5.82D-07 DE=-4.98D-12 OVMax= 0.00D+00

 Cycle   9  Pass 1  IDiag  3:
 E=-0.120217741467883E-01 Delta-E=        0.000000000000 Rises=F Damp=F
 DIIS: error= 5.34D-09 at cycle   9 NSaved=   9.
 NSaved= 9 IEnMin= 9 EnMin=-0.120217741467883E-01 IErMin= 9 ErrMin= 5.34D-09
 ErrMax= 5.34D-09 EMaxC= 1.00D+00 BMatC= 8.86D-16 BMatP= 3.94D-14
 IDIUse=1 WtCom= 1.00D+00 WtEn= 0.00D+00
 Coeff-Com: -0.612D-02 0.136D-01-0.210D-01 0.294D-01-0.179D-01-0.495D-01
 Coeff-Com:  0.312D+00-0.739D+00 0.148D+01
 Coeff:     -0.612D-02 0.136D-01-0.210D-01 0.294D-01-0.179D-01-0.495D-01
 Coeff:      0.312D+00-0.739D+00 0.148D+01
 Gap=     0.384 Goal=     0.100 Shift=    0.000
 RMSDP=1.04D-08 MaxDP=3.39D-08 DE=-4.33D-13 OVMax= 0.00D+00

 Cycle  10  Pass 1  IDiag  3:
 E=-0.120217741467954E-01 Delta-E=        0.000000000000 Rises=F Damp=F
 DIIS: error= 6.65D-10 at cycle  10 NSaved=  10.
 NSaved=10 IEnMin=10 EnMin=-0.120217741467954E-01 IErMin=10 ErrMin= 6.65D-10
 ErrMax= 6.65D-10 EMaxC= 1.00D+00 BMatC= 1.93D-17 BMatP= 8.86D-16
 IDIUse=1 WtCom= 1.00D+00 WtEn= 0.00D+00
 Coeff-Com:  0.301D-02-0.671D-02 0.104D-01-0.146D-01 0.970D-02 0.219D-01
 Coeff-Com: -0.147D+00 0.354D+00-0.765D+00 0.153D+01
 Coeff:      0.301D-02-0.671D-02 0.104D-01-0.146D-01 0.970D-02 0.219D-01
 Coeff:     -0.147D+00 0.354D+00-0.765D+00 0.153D+01
 Gap=     0.384 Goal=     0.100 Shift=    0.000
 RMSDP=1.55D-09 MaxDP=5.36D-09 DE=-7.11D-15 OVMax= 0.00D+00

 Cycle  11  Pass 2  IDiag  1:
 Gap=     0.384 Goal=     0.100 Shift=    0.000
 RMSDP=1.55D-09 MaxDP=5.36D-09 DE=-7.11D-15 OVMax= 0.00D+00

 SCF Done:  E(RPM3) = -0.120217741468E-01 A.U. after   11 cycles
             Convg  =    0.1555D-08             -V/T =  0.9997
 KE=-4.668514589538D+01 PE=-6.179878883309D+01 EE= 4.728180377528D+01
 Leave Link  502 at Mon Jan  7 22:17:54 2013, MaxMem=  134217728 cpu:       0.1
 (Enter /Users/talipovmr/usr/local/g09/l508.exe)
 QCSCF skips out because SCF is already converged.
 Leave Link  508 at Mon Jan  7 22:17:55 2013, MaxMem=  134217728 cpu:       0.0
 (Enter /Users/talipovmr/usr/local/g09/l801.exe)
 Range of M.O.s used for correlation:     1    13
 NBasis=    13 NAE=     9 NBE=     9 NFC=     0 NFV=     0
 NROrb=     13 NOA=     9 NOB=     9 NVA=     4 NVB=     4
 Leave Link  801 at Mon Jan  7 22:17:55 2013, MaxMem=  134217728 cpu:       0.1
 (Enter /Users/talipovmr/usr/local/g09/l1101.exe)
 Leave Link 1101 at Mon Jan  7 22:17:55 2013, MaxMem=  134217728 cpu:       0.1
 (Enter /Users/talipovmr/usr/local/g09/l1102.exe)
 Symmetrizing basis deriv contribution to polar:
 IMax=3 JMax=2 DiffMx= 0.00D+00
 Leave Link 1102 at Mon Jan  7 22:17:55 2013, MaxMem=  134217728 cpu:       0.1
 (Enter /Users/talipovmr/usr/local/g09/l1110.exe)
 Leave Link 1110 at Mon Jan  7 22:17:55 2013, MaxMem=  134217728 cpu:       0.1
 (Enter /Users/talipovmr/usr/local/g09/l1002.exe)
 Minotr:  Closed shell wavefunction.
 Leave Link 1002 at Mon Jan  7 22:17:55 2013, MaxMem=  134217728 cpu:       0.1
 (Enter /Users/talipovmr/usr/local/g09/l701.exe)
 Compute integral first derivatives.
 ... and contract with generalized density number  0.
 Leave Link  701 at Mon Jan  7 22:17:55 2013, MaxMem=  134217728 cpu:       0.1
 (Enter /Users/talipovmr/usr/local/g09/l702.exe)
 L702 exits ... SP integral derivatives will be done elsewhere.
 Leave Link  702 at Mon Jan  7 22:17:55 2013, MaxMem=  134217728 cpu:       0.1
 (Enter /Users/talipovmr/usr/local/g09/l703.exe)
 Compute integral first derivatives, UseDBF=F ICtDFT=           0.
 Integral derivatives from FoFDir, PRISM(SPDF).
 Calling FoFJK, ICntrl=      2147 FMM=F ISym2X=0 I1Cent= 0 IOpClX= 0 NMat=1 NMatS=1 NMatT=0.
 FoFCou: FMM=F IPFlag=           0 FMFlag=      100000 FMFlg1=         800
         NFxFlg=           0 DoJE=F BraDBF=F KetDBF=F FulRan=T
         Omega=  0.000000  0.000000  1.000000  0.000000  0.000000 ICntrl=    2147 IOpCl=  0
         NMat0=    1 NMatS0=    1 NMatT0=    0 NMatD0=    1 NMtDS0=    0 NMtDT0=    0
         I1Cent=           0 NGrid=           0.
 Symmetry not used in FoFCou.
 Leave Link  703 at Mon Jan  7 22:17:55 2013, MaxMem=  134217728 cpu:       0.1
 (Enter /Users/talipovmr/usr/local/g09/l716.exe)
 Dipole        = 1.28724192D-01-7.29897414D-02-5.98051372D-01
 Polarizability= 0.00000000D+00 0.00000000D+00 0.00000000D+00
                 0.00000000D+00 0.00000000D+00 0.00000000D+00
 -------------------------------------------------------------------
 Center     Atomic                   Forces (Hartrees/Bohr)
 Number     Number              X              Y              Z
 -------------------------------------------------------------------
      1        8           0.000071164   -0.000023138   -0.000104081
      2        7          -0.000185460   -0.000039721    0.000031487
      3        8           0.000134371    0.000067700   -0.000015109
      4        1          -0.000020076   -0.000004842    0.000087703
 -------------------------------------------------------------------
 Cartesian Forces:  Max     0.000185460 RMS     0.000083856
 Leave Link  716 at Mon Jan  7 22:17:55 2013, MaxMem=  134217728 cpu:       0.1
 (Enter /Users/talipovmr/usr/local/g09/l123.exe)
 IRC-IRC-IRC-IRC-IRC-IRC-IRC-IRC-IRC-IRC-IRC-IRC-IRC-IRC-IRC-IRC-IRC-IRC
 Pt  1 Step number   1 out of a maximum of 200
 Point Number:   1          Path Number:   1
                    CURRENT STRUCTURE
                Cartesian Coordinates (Ang):                
 ---------------------------------------------------------------------
 Center     Atomic                     Coordinates (Angstroms)
 Number     Number                        X           Y           Z
 ---------------------------------------------------------------------
      1          8                    0.961056   -0.555699    0.003775
      2          7                    0.039607    0.523030    0.067331
      3          8                   -1.059047    0.148648   -0.005332
      4          1                    1.004874   -0.806965   -0.910809
 ---------------------------------------------------------------------
   CHANGE IN THE REACTION COORDINATE =    0.00300
   NET REACTION COORDINATE UP TO THIS POINT =    0.00300
  # OF POINTS ALONG THE PATH =   1
  # OF STEPS =   1

 Calculating another point on the path.
 Point Number  2 in FORWARD path direction.
 Using DVV Reaction Path Following.
 DVV: v0 =  0.0600000
 IRC-IRC-IRC-IRC-IRC-IRC-IRC-IRC-IRC-IRC-IRC-IRC-IRC-IRC-IRC-IRC-IRC-IRC
 Leave Link  123 at Mon Jan  7 22:17:55 2013, MaxMem=  134217728 cpu:       0.0
 (Enter /Users/talipovmr/usr/local/g09/l202.exe)
                          Input orientation:                          
 ---------------------------------------------------------------------
 Center     Atomic      Atomic             Coordinates (Angstroms)
 Number     Number       Type             X           Y           Z
 ---------------------------------------------------------------------
      1          8           0        0.961114   -0.555601    0.003738
      2          7           0        0.039620    0.522980    0.067445
      3          8           0       -1.059053    0.148655   -0.005407
      4          1           0        1.003867   -0.807923   -0.910616
 ---------------------------------------------------------------------
                    Distance matrix (angstroms):
                    1          2          3          4
     1  O    0.000000
     2  N    1.420051   0.000000
     3  O    2.139423   1.162974   0.000000
     4  H    0.949493   1.912505   2.447464   0.000000
 Symmetry turned off by external request.
 Stoichiometry    HNO2
 Framework group  C1[X(HNO2)]
 Deg. of freedom     6
 Full point group                 C1      NOp   1
 Rotational constants (GHZ):     84.7871452     12.8985101     11.5591709
 Leave Link  202 at Mon Jan  7 22:17:55 2013, MaxMem=  134217728 cpu:       0.0
 (Enter /Users/talipovmr/usr/local/g09/l301.exe)
 Standard basis: VSTO-6G (5D, 7F)
 Ernie: Thresh=  0.10000D-02 Tol=  0.10000D-05 Strict=F.
  NNHCO=     0 NNPyr=     0 NCTC=     0               EPep=         0.000000000
    EC=        32.007645217  ECS=         1.102298728   EG=         0.088741360
   EHC=         0.000000000  EAt=       -27.538897446  AtH=         0.452933404
 EPDDG=         0.000000000  ECC=        33.198685305 EAtT=        27.991830850
 Integral buffers will be    131072 words long.
 Regular integral format.
 Two-electron integral symmetry is turned off.
    13 basis functions,    78 primitive gaussians,    13 cartesian basis functions
     9 alpha electrons        9 beta electrons
       nuclear repulsion energy        61.1905161554 Hartrees.
 IExCor=    0 DFT=F Ex=HF Corr=None ExCW=0 ScaHFX=  1.000000
 ScaDFX=  1.000000  1.000000  1.000000  1.000000 ScalE2=  1.000000  1.000000
 IRadAn=      0 IRanWt=     -1 IRanGd=            0 ICorTp=0
 Leave Link  301 at Mon Jan  7 22:17:55 2013, MaxMem=  134217728 cpu:       0.1
 (Enter /Users/talipovmr/usr/local/g09/l302.exe)
 Do NDO integrals.
 NPDir=0 NMtPBC=     1 NCelOv=     1 NCel=       1 NClECP=     1 NCelD=      1
         NCelK=      1 NCelE2=     1 NClLst=     1 CellRange=     0.0.
 One-electron integrals computed using PRISM.
 NBasis=    13 RedAO= F  NBF=    13
 NBsUse=    13 1.00D-04 NBFU=    13
 Leave Link  302 at Mon Jan  7 22:17:55 2013, MaxMem=  134217728 cpu:       0.2
 (Enter /Users/talipovmr/usr/local/g09/l303.exe)
 DipDrv:  MaxL=1.
 Leave Link  303 at Mon Jan  7 22:17:55 2013, MaxMem=  134217728 cpu:       0.1
 (Enter /Users/talipovmr/usr/local/g09/l401.exe)
 Initial guess read from the read-write file.
 B after Tr=     0.000000    0.000000    0.000000
         Rot=    1.000000    0.000000    0.000000    0.000000 Ang=   0.00 deg.
 Guess basis will be translated and rotated to current coordinates.
 Leave Link  401 at Mon Jan  7 22:17:55 2013, MaxMem=  134217728 cpu:       0.2
 (Enter /Users/talipovmr/usr/local/g09/l502.exe)
 Closed shell SCF:
 Requested convergence on RMS density matrix=1.00D-08 within 128 cycles.
 Requested convergence on MAX density matrix=1.00D-06.
 Requested convergence on             energy=1.00D-06.
 Level shift goal  0.100 maximum shift  0.100.
 No special actions if energy rises.
 Dynamic level shift is on during FON iterations.
 Using DIIS extrapolation, IDIIS=    10.
 Overlap will be assumed to be unity.
 Two-electron integral symmetry not used.
 Keep J ints in memory in canonical form, NReq=879130.
 IEnd=       78620 IEndB=       78620 NGot=   134217728 MDV=   134155687
 LenX=   134155687 LenY=   134154805
 Symmetry not used in FoFDir.
 MinBra= 0 MaxBra= 1 Meth= 9.
 IRaf=       0 NMat=   1 IRICut=       1 DoRegI=T DoRafI=F ISym2E= 0 JSym2E=0.

 Cycle   1  Pass 1  IDiag  1:
 E=-0.120213632300832E-01
 DIIS: error= 6.51D-05 at cycle   1 NSaved=   1.
 NSaved= 1 IEnMin= 1 EnMin=-0.120213632300832E-01 IErMin= 1 ErrMin= 6.51D-05
 ErrMax= 6.51D-05 EMaxC= 1.00D+00 BMatC= 7.35D-08 BMatP= 7.35D-08
 IDIUse=1 WtCom= 1.00D+00 WtEn= 0.00D+00
 Coeff-Com:  0.100D+01
 Coeff:      0.100D+01
 Gap=     0.384 Goal=     0.100 Shift=    0.000
 RMSDP=4.55D-05 MaxDP=2.18D-04              OVMax= 0.00D+00

 Cycle   2  Pass 1  IDiag  3:
 E=-0.120217112172725E-01 Delta-E=       -0.000000347987 Rises=F Damp=F
 DIIS: error= 3.93D-05 at cycle   2 NSaved=   2.
 NSaved= 2 IEnMin= 2 EnMin=-0.120217112172725E-01 IErMin= 2 ErrMin= 3.93D-05
 ErrMax= 3.93D-05 EMaxC= 1.00D+00 BMatC= 2.33D-08 BMatP= 7.35D-08
 IDIUse=1 WtCom= 1.00D+00 WtEn= 0.00D+00
 Coeff-Com: -0.107D+01 0.207D+01
 Coeff:     -0.107D+01 0.207D+01
 Gap=     0.384 Goal=     0.100 Shift=    0.000
 RMSDP=5.67D-05 MaxDP=2.73D-04 DE=-3.48D-07 OVMax= 0.00D+00

 Cycle   3  Pass 1  IDiag  3:
 E=-0.120218963886813E-01 Delta-E=       -0.000000185171 Rises=F Damp=F
 DIIS: error= 7.48D-06 at cycle   3 NSaved=   3.
 NSaved= 3 IEnMin= 3 EnMin=-0.120218963886813E-01 IErMin= 3 ErrMin= 7.48D-06
 ErrMax= 7.48D-06 EMaxC= 1.00D+00 BMatC= 1.12D-09 BMatP= 2.33D-08
 IDIUse=1 WtCom= 1.00D+00 WtEn= 0.00D+00
 Coeff-Com:  0.541D+00-0.119D+01 0.165D+01
 Coeff:      0.541D+00-0.119D+01 0.165D+01
 Gap=     0.384 Goal=     0.100 Shift=    0.000
 RMSDP=1.47D-05 MaxDP=5.94D-05 DE=-1.85D-07 OVMax= 0.00D+00

 Cycle   4  Pass 1  IDiag  3:
 E=-0.120219065407667E-01 Delta-E=       -0.000000010152 Rises=F Damp=F
 DIIS: error= 1.66D-06 at cycle   4 NSaved=   4.
 NSaved= 4 IEnMin= 4 EnMin=-0.120219065407667E-01 IErMin= 4 ErrMin= 1.66D-06
 ErrMax= 1.66D-06 EMaxC= 1.00D+00 BMatC= 8.35D-11 BMatP= 1.12D-09
 IDIUse=1 WtCom= 1.00D+00 WtEn= 0.00D+00
 Coeff-Com: -0.403D+00 0.894D+00-0.136D+01 0.187D+01
 Coeff:     -0.403D+00 0.894D+00-0.136D+01 0.187D+01
 Gap=     0.384 Goal=     0.100 Shift=    0.000
 RMSDP=4.37D-06 MaxDP=1.32D-05 DE=-1.02D-08 OVMax= 0.00D+00

 Cycle   5  Pass 1  IDiag  3:
 E=-0.120219074741428E-01 Delta-E=       -0.000000000933 Rises=F Damp=F
 DIIS: error= 1.02D-06 at cycle   5 NSaved=   5.
 NSaved= 5 IEnMin= 5 EnMin=-0.120219074741428E-01 IErMin= 5 ErrMin= 1.02D-06
 ErrMax= 1.02D-06 EMaxC= 1.00D+00 BMatC= 1.40D-11 BMatP= 8.35D-11
 IDIUse=1 WtCom= 1.00D+00 WtEn= 0.00D+00
 Coeff-Com:  0.343D+00-0.765D+00 0.120D+01-0.191D+01 0.213D+01
 Coeff:      0.343D+00-0.765D+00 0.120D+01-0.191D+01 0.213D+01
 Gap=     0.384 Goal=     0.100 Shift=    0.000
 RMSDP=2.51D-06 MaxDP=1.08D-05 DE=-9.33D-10 OVMax= 0.00D+00

 Cycle   6  Pass 1  IDiag  3:
 E=-0.120219077107890E-01 Delta-E=       -0.000000000237 Rises=F Damp=F
 DIIS: error= 5.05D-07 at cycle   6 NSaved=   6.
 NSaved= 6 IEnMin= 6 EnMin=-0.120219077107890E-01 IErMin= 6 ErrMin= 5.05D-07
 ErrMax= 5.05D-07 EMaxC= 1.00D+00 BMatC= 3.00D-12 BMatP= 1.40D-11
 IDIUse=1 WtCom= 1.00D+00 WtEn= 0.00D+00
 Coeff-Com: -0.228D+00 0.509D+00-0.803D+00 0.134D+01-0.200D+01 0.218D+01
 Coeff:     -0.228D+00 0.509D+00-0.803D+00 0.134D+01-0.200D+01 0.218D+01
 Gap=     0.384 Goal=     0.100 Shift=    0.000
 RMSDP=1.58D-06 MaxDP=7.64D-06 DE=-2.37D-10 OVMax= 0.00D+00

 Cycle   7  Pass 1  IDiag  3:
 E=-0.120219077700980E-01 Delta-E=       -0.000000000059 Rises=F Damp=F
 DIIS: error= 1.47D-07 at cycle   7 NSaved=   7.
 NSaved= 7 IEnMin= 7 EnMin=-0.120219077700980E-01 IErMin= 7 ErrMin= 1.47D-07
 ErrMax= 1.47D-07 EMaxC= 1.00D+00 BMatC= 3.43D-13 BMatP= 3.00D-12
 IDIUse=1 WtCom= 1.00D+00 WtEn= 0.00D+00
 Coeff-Com:  0.561D-01-0.125D+00 0.199D+00-0.355D+00 0.652D+00-0.107D+01
 Coeff-Com:  0.164D+01
 Coeff:      0.561D-01-0.125D+00 0.199D+00-0.355D+00 0.652D+00-0.107D+01
 Coeff:      0.164D+01
 Gap=     0.384 Goal=     0.100 Shift=    0.000
 RMSDP=4.33D-07 MaxDP=2.19D-06 DE=-5.93D-11 OVMax= 0.00D+00

 Cycle   8  Pass 1  IDiag  3:
 E=-0.120219077750434E-01 Delta-E=       -0.000000000005 Rises=F Damp=F
 DIIS: error= 3.81D-08 at cycle   8 NSaved=   8.
 NSaved= 8 IEnMin= 8 EnMin=-0.120219077750434E-01 IErMin= 8 ErrMin= 3.81D-08
 ErrMax= 3.81D-08 EMaxC= 1.00D+00 BMatC= 3.89D-14 BMatP= 3.43D-13
 IDIUse=1 WtCom= 1.00D+00 WtEn= 0.00D+00
 Coeff-Com:  0.601D-02-0.133D-01 0.198D-01-0.190D-01-0.351D-01 0.212D+00
 Coeff-Com: -0.831D+00 0.166D+01
 Coeff:      0.601D-02-0.133D-01 0.198D-01-0.190D-01-0.351D-01 0.212D+00
 Coeff:     -0.831D+00 0.166D+01
 Gap=     0.384 Goal=     0.100 Shift=    0.000
 RMSDP=1.23D-07 MaxDP=5.78D-07 DE=-4.95D-12 OVMax= 0.00D+00

 Cycle   9  Pass 1  IDiag  3:
 E=-0.120219077754200E-01 Delta-E=        0.000000000000 Rises=F Damp=F
 DIIS: error= 5.53D-09 at cycle   9 NSaved=   9.
 NSaved= 9 IEnMin= 9 EnMin=-0.120219077754200E-01 IErMin= 9 ErrMin= 5.53D-09
 ErrMax= 5.53D-09 EMaxC= 1.00D+00 BMatC= 9.29D-16 BMatP= 3.89D-14
 IDIUse=1 WtCom= 1.00D+00 WtEn= 0.00D+00
 Coeff-Com: -0.609D-02 0.136D-01-0.209D-01 0.297D-01-0.210D-01-0.390D-01
 Coeff-Com:  0.286D+00-0.709D+00 0.147D+01
 Coeff:     -0.609D-02 0.136D-01-0.209D-01 0.297D-01-0.210D-01-0.390D-01
 Coeff:      0.286D+00-0.709D+00 0.147D+01
 Gap=     0.384 Goal=     0.100 Shift=    0.000
 RMSDP=1.05D-08 MaxDP=3.45D-08 DE=-3.77D-13 OVMax= 0.00D+00

 Cycle  10  Pass 1  IDiag  3:
 E=-0.120219077754413E-01 Delta-E=        0.000000000000 Rises=F Damp=F
 DIIS: error= 6.84D-10 at cycle  10 NSaved=  10.
 NSaved=10 IEnMin=10 EnMin=-0.120219077754413E-01 IErMin=10 ErrMin= 6.84D-10
 ErrMax= 6.84D-10 EMaxC= 1.00D+00 BMatC= 2.15D-17 BMatP= 9.29D-16
 IDIUse=1 WtCom= 1.00D+00 WtEn= 0.00D+00
 Coeff-Com:  0.292D-02-0.650D-02 0.101D-01-0.143D-01 0.108D-01 0.167D-01
 Coeff-Com: -0.132D+00 0.333D+00-0.748D+00 0.153D+01
 Coeff:      0.292D-02-0.650D-02 0.101D-01-0.143D-01 0.108D-01 0.167D-01
 Coeff:     -0.132D+00 0.333D+00-0.748D+00 0.153D+01
 Gap=     0.384 Goal=     0.100 Shift=    0.000
 RMSDP=1.60D-09 MaxDP=5.41D-09 DE=-2.13D-14 OVMax= 0.00D+00

 Cycle  11  Pass 2  IDiag  1:
 Gap=     0.384 Goal=     0.100 Shift=    0.000
 RMSDP=1.60D-09 MaxDP=5.41D-09 DE=-2.13D-14 OVMax= 0.00D+00

 SCF Done:  E(RPM3) = -0.120219077754E-01 A.U. after   11 cycles
             Convg  =    0.1605D-08             -V/T =  0.9997
 KE=-4.668524209770D+01 PE=-6.179934238262D+01 EE= 4.728204641710D+01
 Leave Link  502 at Mon Jan  7 22:17:56 2013, MaxMem=  134217728 cpu:       0.1
 (Enter /Users/talipovmr/usr/local/g09/l508.exe)
 QCSCF skips out because SCF is already converged.
 Leave Link  508 at Mon Jan  7 22:17:56 2013, MaxMem=  134217728 cpu:       0.0
 (Enter /Users/talipovmr/usr/local/g09/l801.exe)
 Range of M.O.s used for correlation:     1    13
 NBasis=    13 NAE=     9 NBE=     9 NFC=     0 NFV=     0
 NROrb=     13 NOA=     9 NOB=     9 NVA=     4 NVB=     4
 Leave Link  801 at Mon Jan  7 22:17:56 2013, MaxMem=  134217728 cpu:       0.1
 (Enter /Users/talipovmr/usr/local/g09/l1101.exe)
 Leave Link 1101 at Mon Jan  7 22:17:56 2013, MaxMem=  134217728 cpu:       0.1
 (Enter /Users/talipovmr/usr/local/g09/l1102.exe)
 Symmetrizing basis deriv contribution to polar:
 IMax=3 JMax=2 DiffMx= 0.00D+00
 Leave Link 1102 at Mon Jan  7 22:17:56 2013, MaxMem=  134217728 cpu:       0.1
 (Enter /Users/talipovmr/usr/local/g09/l1110.exe)
 Leave Link 1110 at Mon Jan  7 22:17:56 2013, MaxMem=  134217728 cpu:       0.1
 (Enter /Users/talipovmr/usr/local/g09/l1002.exe)
 Minotr:  Closed shell wavefunction.
 Leave Link 1002 at Mon Jan  7 22:17:56 2013, MaxMem=  134217728 cpu:       0.1
 (Enter /Users/talipovmr/usr/local/g09/l701.exe)
 Compute integral first derivatives.
 ... and contract with generalized density number  0.
 Leave Link  701 at Mon Jan  7 22:17:56 2013, MaxMem=  134217728 cpu:       0.1
 (Enter /Users/talipovmr/usr/local/g09/l702.exe)
 L702 exits ... SP integral derivatives will be done elsewhere.
 Leave Link  702 at Mon Jan  7 22:17:56 2013, MaxMem=  134217728 cpu:       0.1
 (Enter /Users/talipovmr/usr/local/g09/l703.exe)
 Compute integral first derivatives, UseDBF=F ICtDFT=           0.
 Integral derivatives from FoFDir, PRISM(SPDF).
 Calling FoFJK, ICntrl=      2147 FMM=F ISym2X=0 I1Cent= 0 IOpClX= 0 NMat=1 NMatS=1 NMatT=0.
 FoFCou: FMM=F IPFlag=           0 FMFlag=      100000 FMFlg1=         800
         NFxFlg=           0 DoJE=F BraDBF=F KetDBF=F FulRan=T
         Omega=  0.000000  0.000000  1.000000  0.000000  0.000000 ICntrl=    2147 IOpCl=  0
         NMat0=    1 NMatS0=    1 NMatT0=    0 NMatD0=    1 NMtDS0=    0 NMtDT0=    0
         I1Cent=           0 NGrid=           0.
 Symmetry not used in FoFCou.
 Leave Link  703 at Mon Jan  7 22:17:56 2013, MaxMem=  134217728 cpu:       0.1
 (Enter /Users/talipovmr/usr/local/g09/l716.exe)
 Dipole        = 1.28270162D-01-7.37197468D-02-5.97912869D-01
 Polarizability= 0.00000000D+00 0.00000000D+00 0.00000000D+00
                 0.00000000D+00 0.00000000D+00 0.00000000D+00
 -------------------------------------------------------------------
 Center     Atomic                   Forces (Hartrees/Bohr)
 Number     Number              X              Y              Z
 -------------------------------------------------------------------
      1        8           0.000084915    0.000000014   -0.000116814
      2        7          -0.000182330   -0.000050594    0.000055992
      3        8           0.000133057    0.000069195   -0.000033328
      4        1          -0.000035642   -0.000018615    0.000094149
 -------------------------------------------------------------------
 Cartesian Forces:  Max     0.000182330 RMS     0.000088449
 Leave Link  716 at Mon Jan  7 22:17:56 2013, MaxMem=  134217728 cpu:       0.1
 (Enter /Users/talipovmr/usr/local/g09/l123.exe)
 IRC-IRC-IRC-IRC-IRC-IRC-IRC-IRC-IRC-IRC-IRC-IRC-IRC-IRC-IRC-IRC-IRC-IRC
 Pt  2 Step number   1 out of a maximum of 200
 Point Number:   2          Path Number:   1
                    CURRENT STRUCTURE
                Cartesian Coordinates (Ang):                
 ---------------------------------------------------------------------
 Center     Atomic                     Coordinates (Angstroms)
 Number     Number                        X           Y           Z
 ---------------------------------------------------------------------
      1          8                    0.961114   -0.555601    0.003738
      2          7                    0.039620    0.522980    0.067445
      3          8                   -1.059053    0.148655   -0.005407
      4          1                    1.003867   -0.807923   -0.910616
 ---------------------------------------------------------------------
   CHANGE IN THE REACTION COORDINATE =    0.00300
   NET REACTION COORDINATE UP TO THIS POINT =    0.00600
  # OF POINTS ALONG THE PATH =   2
  # OF STEPS =   1

 Calculating another point on the path.
 Point Number  3 in FORWARD path direction.
 Using DVV Reaction Path Following.
 DVV: v0 =  0.0600000
 DVV: Current Time Step =  0.0500000
 DVV: New Time Step     =  2.0499240
 IRC-IRC-IRC-IRC-IRC-IRC-IRC-IRC-IRC-IRC-IRC-IRC-IRC-IRC-IRC-IRC-IRC-IRC
 Leave Link  123 at Mon Jan  7 22:17:56 2013, MaxMem=  134217728 cpu:       0.0
 (Enter /Users/talipovmr/usr/local/g09/l202.exe)
                          Input orientation:                          
 ---------------------------------------------------------------------
 Center     Atomic      Atomic             Coordinates (Angstroms)
 Number     Number       Type             X           Y           Z
 ---------------------------------------------------------------------
      1          8           0        0.961171   -0.555504    0.003700
      2          7           0        0.039633    0.522930    0.067559
      3          8           0       -1.059058    0.148661   -0.005481
      4          1           0        1.002860   -0.808880   -0.910423
 ---------------------------------------------------------------------
                    Distance matrix (angstroms):
                    1          2          3          4
     1  O    0.000000
     2  N    1.419975   0.000000
     3  O    2.139453   1.162985   0.000000
     4  H    0.949504   1.912582   2.446898   0.000000
 Symmetry turned off by external request.
 Stoichiometry    HNO2
 Framework group  C1[X(HNO2)]
 Deg. of freedom     6
 Full point group                 C1      NOp   1
 Rotational constants (GHZ):     84.7910943     12.8990716     11.5592191
 Leave Link  202 at Mon Jan  7 22:17:56 2013, MaxMem=  134217728 cpu:       0.0
 (Enter /Users/talipovmr/usr/local/g09/l301.exe)
 Standard basis: VSTO-6G (5D, 7F)
 Ernie: Thresh=  0.10000D-02 Tol=  0.10000D-05 Strict=F.
  NNHCO=     0 NNPyr=     0 NCTC=     0               EPep=         0.000000000
    EC=        32.008000113  ECS=         1.102332415   EG=         0.088754631
   EHC=         0.000000000  EAt=       -27.538897446  AtH=         0.452933404
 EPDDG=         0.000000000  ECC=        33.199087159 EAtT=        27.991830850
 Integral buffers will be    131072 words long.
 Regular integral format.
 Two-electron integral symmetry is turned off.
    13 basis functions,    78 primitive gaussians,    13 cartesian basis functions
     9 alpha electrons        9 beta electrons
       nuclear repulsion energy        61.1909180100 Hartrees.
 IExCor=    0 DFT=F Ex=HF Corr=None ExCW=0 ScaHFX=  1.000000
 ScaDFX=  1.000000  1.000000  1.000000  1.000000 ScalE2=  1.000000  1.000000
 IRadAn=      0 IRanWt=     -1 IRanGd=            0 ICorTp=0
 Leave Link  301 at Mon Jan  7 22:17:56 2013, MaxMem=  134217728 cpu:       0.1
 (Enter /Users/talipovmr/usr/local/g09/l302.exe)
 Do NDO integrals.
 NPDir=0 NMtPBC=     1 NCelOv=     1 NCel=       1 NClECP=     1 NCelD=      1
         NCelK=      1 NCelE2=     1 NClLst=     1 CellRange=     0.0.
 One-electron integrals computed using PRISM.
 NBasis=    13 RedAO= F  NBF=    13
 NBsUse=    13 1.00D-04 NBFU=    13
 Leave Link  302 at Mon Jan  7 22:17:56 2013, MaxMem=  134217728 cpu:       0.2
 (Enter /Users/talipovmr/usr/local/g09/l303.exe)
 DipDrv:  MaxL=1.
 Leave Link  303 at Mon Jan  7 22:17:56 2013, MaxMem=  134217728 cpu:       0.1
 (Enter /Users/talipovmr/usr/local/g09/l401.exe)
 Initial guess read from the read-write file.
 B after Tr=     0.000000    0.000000    0.000000
         Rot=    1.000000    0.000000    0.000000    0.000000 Ang=   0.00 deg.
 Guess basis will be translated and rotated to current coordinates.
 Leave Link  401 at Mon Jan  7 22:17:56 2013, MaxMem=  134217728 cpu:       0.2
 (Enter /Users/talipovmr/usr/local/g09/l502.exe)
 Closed shell SCF:
 Requested convergence on RMS density matrix=1.00D-08 within 128 cycles.
 Requested convergence on MAX density matrix=1.00D-06.
 Requested convergence on             energy=1.00D-06.
 Level shift goal  0.100 maximum shift  0.100.
 No special actions if energy rises.
 Dynamic level shift is on during FON iterations.
 Using DIIS extrapolation, IDIIS=    10.
 Overlap will be assumed to be unity.
 Two-electron integral symmetry not used.
 Keep J ints in memory in canonical form, NReq=879130.
 IEnd=       78620 IEndB=       78620 NGot=   134217728 MDV=   134155687
 LenX=   134155687 LenY=   134154805
 Symmetry not used in FoFDir.
 MinBra= 0 MaxBra= 1 Meth= 9.
 IRaf=       0 NMat=   1 IRICut=       1 DoRegI=T DoRafI=F ISym2E= 0 JSym2E=0.

 Cycle   1  Pass 1  IDiag  1:
 E=-0.120215693708516E-01
 DIIS: error= 6.51D-05 at cycle   1 NSaved=   1.
 NSaved= 1 IEnMin= 1 EnMin=-0.120215693708516E-01 IErMin= 1 ErrMin= 6.51D-05
 ErrMax= 6.51D-05 EMaxC= 1.00D+00 BMatC= 7.35D-08 BMatP= 7.35D-08
 IDIUse=1 WtCom= 1.00D+00 WtEn= 0.00D+00
 Coeff-Com:  0.100D+01
 Coeff:      0.100D+01
 Gap=     0.384 Goal=     0.100 Shift=    0.000
 RMSDP=4.55D-05 MaxDP=2.18D-04              OVMax= 0.00D+00

 Cycle   2  Pass 1  IDiag  3:
 E=-0.120219174098111E-01 Delta-E=       -0.000000348039 Rises=F Damp=F
 DIIS: error= 3.93D-05 at cycle   2 NSaved=   2.
 NSaved= 2 IEnMin= 2 EnMin=-0.120219174098111E-01 IErMin= 2 ErrMin= 3.93D-05
 ErrMax= 3.93D-05 EMaxC= 1.00D+00 BMatC= 2.33D-08 BMatP= 7.35D-08
 IDIUse=1 WtCom= 1.00D+00 WtEn= 0.00D+00
 Coeff-Com: -0.107D+01 0.207D+01
 Coeff:     -0.107D+01 0.207D+01
 Gap=     0.384 Goal=     0.100 Shift=    0.000
 RMSDP=5.67D-05 MaxDP=2.73D-04 DE=-3.48D-07 OVMax= 0.00D+00

 Cycle   3  Pass 1  IDiag  3:
 E=-0.120221025980598E-01 Delta-E=       -0.000000185188 Rises=F Damp=F
 DIIS: error= 7.48D-06 at cycle   3 NSaved=   3.
 NSaved= 3 IEnMin= 3 EnMin=-0.120221025980598E-01 IErMin= 3 ErrMin= 7.48D-06
 ErrMax= 7.48D-06 EMaxC= 1.00D+00 BMatC= 1.12D-09 BMatP= 2.33D-08
 IDIUse=1 WtCom= 1.00D+00 WtEn= 0.00D+00
 Coeff-Com:  0.541D+00-0.119D+01 0.165D+01
 Coeff:      0.541D+00-0.119D+01 0.165D+01
 Gap=     0.384 Goal=     0.100 Shift=    0.000
 RMSDP=1.47D-05 MaxDP=5.94D-05 DE=-1.85D-07 OVMax= 0.00D+00

 Cycle   4  Pass 1  IDiag  3:
 E=-0.120221127535700E-01 Delta-E=       -0.000000010156 Rises=F Damp=F
 DIIS: error= 1.65D-06 at cycle   4 NSaved=   4.
 NSaved= 4 IEnMin= 4 EnMin=-0.120221127535700E-01 IErMin= 4 ErrMin= 1.65D-06
 ErrMax= 1.65D-06 EMaxC= 1.00D+00 BMatC= 8.33D-11 BMatP= 1.12D-09
 IDIUse=1 WtCom= 1.00D+00 WtEn= 0.00D+00
 Coeff-Com: -0.403D+00 0.894D+00-0.136D+01 0.187D+01
 Coeff:     -0.403D+00 0.894D+00-0.136D+01 0.187D+01
 Gap=     0.384 Goal=     0.100 Shift=    0.000
 RMSDP=4.36D-06 MaxDP=1.32D-05 DE=-1.02D-08 OVMax= 0.00D+00

 Cycle   5  Pass 1  IDiag  3:
 E=-0.120221136849992E-01 Delta-E=       -0.000000000931 Rises=F Damp=F
 DIIS: error= 1.02D-06 at cycle   5 NSaved=   5.
 NSaved= 5 IEnMin= 5 EnMin=-0.120221136849992E-01 IErMin= 5 ErrMin= 1.02D-06
 ErrMax= 1.02D-06 EMaxC= 1.00D+00 BMatC= 1.39D-11 BMatP= 8.33D-11
 IDIUse=1 WtCom= 1.00D+00 WtEn= 0.00D+00
 Coeff-Com:  0.343D+00-0.765D+00 0.120D+01-0.191D+01 0.214D+01
 Coeff:      0.343D+00-0.765D+00 0.120D+01-0.191D+01 0.214D+01
 Gap=     0.384 Goal=     0.100 Shift=    0.000
 RMSDP=2.52D-06 MaxDP=1.08D-05 DE=-9.31D-10 OVMax= 0.00D+00

 Cycle   6  Pass 1  IDiag  3:
 E=-0.120221139213896E-01 Delta-E=       -0.000000000236 Rises=F Damp=F
 DIIS: error= 5.01D-07 at cycle   6 NSaved=   6.
 NSaved= 6 IEnMin= 6 EnMin=-0.120221139213896E-01 IErMin= 6 ErrMin= 5.01D-07
 ErrMax= 5.01D-07 EMaxC= 1.00D+00 BMatC= 2.95D-12 BMatP= 1.39D-11
 IDIUse=1 WtCom= 1.00D+00 WtEn= 0.00D+00
 Coeff-Com: -0.228D+00 0.509D+00-0.802D+00 0.134D+01-0.199D+01 0.217D+01
 Coeff:     -0.228D+00 0.509D+00-0.802D+00 0.134D+01-0.199D+01 0.217D+01
 Gap=     0.384 Goal=     0.100 Shift=    0.000
 RMSDP=1.57D-06 MaxDP=7.58D-06 DE=-2.36D-10 OVMax= 0.00D+00

 Cycle   7  Pass 1  IDiag  3:
 E=-0.120221139798744E-01 Delta-E=       -0.000000000058 Rises=F Damp=F
 DIIS: error= 1.47D-07 at cycle   7 NSaved=   7.
 NSaved= 7 IEnMin= 7 EnMin=-0.120221139798744E-01 IErMin= 7 ErrMin= 1.47D-07
 ErrMax= 1.47D-07 EMaxC= 1.00D+00 BMatC= 3.45D-13 BMatP= 2.95D-12
 IDIUse=1 WtCom= 1.00D+00 WtEn= 0.00D+00
 Coeff-Com:  0.550D-01-0.123D+00 0.195D+00-0.349D+00 0.647D+00-0.108D+01
 Coeff-Com:  0.165D+01
 Coeff:      0.550D-01-0.123D+00 0.195D+00-0.349D+00 0.647D+00-0.108D+01
 Coeff:      0.165D+01
 Gap=     0.384 Goal=     0.100 Shift=    0.000
 RMSDP=4.43D-07 MaxDP=2.24D-06 DE=-5.85D-11 OVMax= 0.00D+00

 Cycle   8  Pass 1  IDiag  3:
 E=-0.120221139848553E-01 Delta-E=       -0.000000000005 Rises=F Damp=F
 DIIS: error= 3.65D-08 at cycle   8 NSaved=   8.
 NSaved= 8 IEnMin= 8 EnMin=-0.120221139848553E-01 IErMin= 8 ErrMin= 3.65D-08
 ErrMax= 3.65D-08 EMaxC= 1.00D+00 BMatC= 3.58D-14 BMatP= 3.45D-13
 IDIUse=1 WtCom= 1.00D+00 WtEn= 0.00D+00
 Coeff-Com:  0.468D-02-0.104D-01 0.155D-01-0.149D-01-0.355D-01 0.212D+00
 Coeff-Com: -0.789D+00 0.162D+01
 Coeff:      0.468D-02-0.104D-01 0.155D-01-0.149D-01-0.355D-01 0.212D+00
 Coeff:     -0.789D+00 0.162D+01
 Gap=     0.384 Goal=     0.100 Shift=    0.000
 RMSDP=1.13D-07 MaxDP=5.25D-07 DE=-4.98D-12 OVMax= 0.00D+00

 Cycle   9  Pass 1  IDiag  3:
 E=-0.120221139852319E-01 Delta-E=        0.000000000000 Rises=F Damp=F
 DIIS: error= 6.22D-09 at cycle   9 NSaved=   9.
 NSaved= 9 IEnMin= 9 EnMin=-0.120221139852319E-01 IErMin= 9 ErrMin= 6.22D-09
 ErrMax= 6.22D-09 EMaxC= 1.00D+00 BMatC= 1.12D-15 BMatP= 3.58D-14
 IDIUse=1 WtCom= 1.00D+00 WtEn= 0.00D+00
 Coeff-Com: -0.504D-02 0.112D-01-0.174D-01 0.245D-01-0.128D-01-0.559D-01
 Coeff-Com:  0.312D+00-0.780D+00 0.152D+01
 Coeff:     -0.504D-02 0.112D-01-0.174D-01 0.245D-01-0.128D-01-0.559D-01
 Coeff:      0.312D+00-0.780D+00 0.152D+01
 Gap=     0.384 Goal=     0.100 Shift=    0.000
 RMSDP=1.23D-08 MaxDP=4.18D-08 DE=-3.77D-13 OVMax= 0.00D+00

 Cycle  10  Pass 1  IDiag  3:
 E=-0.120221139852177E-01 Delta-E=        0.000000000000 Rises=F Damp=F
 DIIS: error= 7.24D-10 at cycle  10 NSaved=  10.
 NSaved=10 IEnMin= 9 EnMin=-0.120221139852319E-01 IErMin=10 ErrMin= 7.24D-10
 ErrMax= 7.24D-10 EMaxC= 1.00D+00 BMatC= 1.96D-17 BMatP= 1.12D-15
 IDIUse=1 WtCom= 1.00D+00 WtEn= 0.00D+00
 Coeff-Com:  0.236D-02-0.525D-02 0.813D-02-0.116D-01 0.733D-02 0.220D-01
 Coeff-Com: -0.133D+00 0.341D+00-0.719D+00 0.149D+01
 Coeff:      0.236D-02-0.525D-02 0.813D-02-0.116D-01 0.733D-02 0.220D-01
 Coeff:     -0.133D+00 0.341D+00-0.719D+00 0.149D+01
 Gap=     0.384 Goal=     0.100 Shift=    0.000
 RMSDP=1.48D-09 MaxDP=5.12D-09 DE= 1.42D-14 OVMax= 0.00D+00

 Cycle  11  Pass 2  IDiag  1:
 Gap=     0.384 Goal=     0.100 Shift=    0.000
 RMSDP=1.48D-09 MaxDP=5.12D-09 DE= 1.42D-14 OVMax= 0.00D+00

 SCF Done:  E(RPM3) = -0.120221139852E-01 A.U. after   11 cycles
             Convg  =    0.1483D-08             -V/T =  0.9997
 KE=-4.668533686787D+01 PE=-6.179988967154D+01 EE= 4.728228641546D+01
 Leave Link  502 at Mon Jan  7 22:17:57 2013, MaxMem=  134217728 cpu:       0.1
 (Enter /Users/talipovmr/usr/local/g09/l508.exe)
 QCSCF skips out because SCF is already converged.
 Leave Link  508 at Mon Jan  7 22:17:57 2013, MaxMem=  134217728 cpu:       0.0
 (Enter /Users/talipovmr/usr/local/g09/l801.exe)
 Range of M.O.s used for correlation:     1    13
 NBasis=    13 NAE=     9 NBE=     9 NFC=     0 NFV=     0
 NROrb=     13 NOA=     9 NOB=     9 NVA=     4 NVB=     4
 Leave Link  801 at Mon Jan  7 22:17:57 2013, MaxMem=  134217728 cpu:       0.1
 (Enter /Users/talipovmr/usr/local/g09/l1101.exe)
 Leave Link 1101 at Mon Jan  7 22:17:57 2013, MaxMem=  134217728 cpu:       0.1
 (Enter /Users/talipovmr/usr/local/g09/l1102.exe)
 Symmetrizing basis deriv contribution to polar:
 IMax=3 JMax=2 DiffMx= 0.00D+00
 Leave Link 1102 at Mon Jan  7 22:17:57 2013, MaxMem=  134217728 cpu:       0.1
 (Enter /Users/talipovmr/usr/local/g09/l1110.exe)
 Leave Link 1110 at Mon Jan  7 22:17:57 2013, MaxMem=  134217728 cpu:       0.1
 (Enter /Users/talipovmr/usr/local/g09/l1002.exe)
 Minotr:  Closed shell wavefunction.
 Leave Link 1002 at Mon Jan  7 22:17:57 2013, MaxMem=  134217728 cpu:       0.1
 (Enter /Users/talipovmr/usr/local/g09/l701.exe)
 Compute integral first derivatives.
 ... and contract with generalized density number  0.
 Leave Link  701 at Mon Jan  7 22:17:57 2013, MaxMem=  134217728 cpu:       0.1
 (Enter /Users/talipovmr/usr/local/g09/l702.exe)
 L702 exits ... SP integral derivatives will be done elsewhere.
 Leave Link  702 at Mon Jan  7 22:17:57 2013, MaxMem=  134217728 cpu:       0.1
 (Enter /Users/talipovmr/usr/local/g09/l703.exe)
 Compute integral first derivatives, UseDBF=F ICtDFT=           0.
 Integral derivatives from FoFDir, PRISM(SPDF).
 Calling FoFJK, ICntrl=      2147 FMM=F ISym2X=0 I1Cent= 0 IOpClX= 0 NMat=1 NMatS=1 NMatT=0.
 FoFCou: FMM=F IPFlag=           0 FMFlag=      100000 FMFlg1=         800
         NFxFlg=           0 DoJE=F BraDBF=F KetDBF=F FulRan=T
         Omega=  0.000000  0.000000  1.000000  0.000000  0.000000 ICntrl=    2147 IOpCl=  0
         NMat0=    1 NMatS0=    1 NMatT0=    0 NMatD0=    1 NMtDS0=    0 NMtDT0=    0
         I1Cent=           0 NGrid=           0.
 Symmetry not used in FoFCou.
 Leave Link  703 at Mon Jan  7 22:17:57 2013, MaxMem=  134217728 cpu:       0.1
 (Enter /Users/talipovmr/usr/local/g09/l716.exe)
 Dipole        = 1.27817099D-01-7.44496874D-02-5.97772822D-01
 Polarizability= 0.00000000D+00 0.00000000D+00 0.00000000D+00
                 0.00000000D+00 0.00000000D+00 0.00000000D+00
 -------------------------------------------------------------------
 Center     Atomic                   Forces (Hartrees/Bohr)
 Number     Number              X              Y              Z
 -------------------------------------------------------------------
      1        8           0.000098547    0.000022786   -0.000131904
      2        7          -0.000178996   -0.000061677    0.000080545
      3        8           0.000131719    0.000070688   -0.000051559
      4        1          -0.000051269   -0.000031797    0.000102919
 -------------------------------------------------------------------
 Cartesian Forces:  Max     0.000178996 RMS     0.000095393
 Leave Link  716 at Mon Jan  7 22:17:57 2013, MaxMem=  134217728 cpu:       0.1
 (Enter /Users/talipovmr/usr/local/g09/l123.exe)
 IRC-IRC-IRC-IRC-IRC-IRC-IRC-IRC-IRC-IRC-IRC-IRC-IRC-IRC-IRC-IRC-IRC-IRC
 Pt  3 Step number   1 out of a maximum of 200
 Point Number:   3          Path Number:   1
                    CURRENT STRUCTURE
                Cartesian Coordinates (Ang):                
 ---------------------------------------------------------------------
 Center     Atomic                     Coordinates (Angstroms)
 Number     Number                        X           Y           Z
 ---------------------------------------------------------------------
      1          8                    0.961171   -0.555504    0.003700
      2          7                    0.039633    0.522930    0.067559
      3          8                   -1.059058    0.148661   -0.005481
      4          1                    1.002860   -0.808880   -0.910423
 ---------------------------------------------------------------------
   CHANGE IN THE REACTION COORDINATE =    0.00300
   NET REACTION COORDINATE UP TO THIS POINT =    0.00900
  # OF POINTS ALONG THE PATH =   3
  # OF STEPS =   1

 Calculating another point on the path.
 Point Number  4 in FORWARD path direction.
 Using DVV Reaction Path Following.
 DVV: v0 =  0.0600000
 DVV: Current Time Step =  2.0499240
 DVV: New Time Step     =  0.6222780
 IRC-IRC-IRC-IRC-IRC-IRC-IRC-IRC-IRC-IRC-IRC-IRC-IRC-IRC-IRC-IRC-IRC-IRC
 Leave Link  123 at Mon Jan  7 22:17:57 2013, MaxMem=  134217728 cpu:       0.0
 (Enter /Users/talipovmr/usr/local/g09/l202.exe)
                          Input orientation:                          
 ---------------------------------------------------------------------
 Center     Atomic      Atomic             Coordinates (Angstroms)
 Number     Number       Type             X           Y           Z
 ---------------------------------------------------------------------
      1          8           0        0.963533   -0.551508    0.002141
      2          7           0        0.040139    0.520876    0.072245
      3          8           0       -1.059258    0.148937   -0.008536
      4          1           0        0.961513   -0.848138   -0.902312
 ---------------------------------------------------------------------
                    Distance matrix (angstroms):
                    1          2          3          4
     1  O    0.000000
     2  N    1.416890   0.000000
     3  O    2.140658   1.163417   0.000000
     4  H    0.951856   1.916479   2.424151   0.000000
 Symmetry turned off by external request.
 Stoichiometry    HNO2
 Framework group  C1[X(HNO2)]
 Deg. of freedom     6
 Full point group                 C1      NOp   1
 Rotational constants (GHZ):     84.9111278     12.9223256     11.5599347
 Leave Link  202 at Mon Jan  7 22:17:57 2013, MaxMem=  134217728 cpu:       0.0
 (Enter /Users/talipovmr/usr/local/g09/l301.exe)
 Standard basis: VSTO-6G (5D, 7F)
 Ernie: Thresh=  0.10000D-02 Tol=  0.10000D-05 Strict=F.
  NNHCO=     0 NNPyr=     0 NCTC=     0               EPep=         0.000000000
    EC=        32.019623568  ECS=         1.102456869   EG=         0.089438655
   EHC=         0.000000000  EAt=       -27.538897446  AtH=         0.452933404
 EPDDG=         0.000000000  ECC=        33.211519092 EAtT=        27.991830850
 Integral buffers will be    131072 words long.
 Regular integral format.
 Two-electron integral symmetry is turned off.
    13 basis functions,    78 primitive gaussians,    13 cartesian basis functions
     9 alpha electrons        9 beta electrons
       nuclear repulsion energy        61.2033499426 Hartrees.
 IExCor=    0 DFT=F Ex=HF Corr=None ExCW=0 ScaHFX=  1.000000
 ScaDFX=  1.000000  1.000000  1.000000  1.000000 ScalE2=  1.000000  1.000000
 IRadAn=      0 IRanWt=     -1 IRanGd=            0 ICorTp=0
 Leave Link  301 at Mon Jan  7 22:17:57 2013, MaxMem=  134217728 cpu:       0.1
 (Enter /Users/talipovmr/usr/local/g09/l302.exe)
 Do NDO integrals.
 NPDir=0 NMtPBC=     1 NCelOv=     1 NCel=       1 NClECP=     1 NCelD=      1
         NCelK=      1 NCelE2=     1 NClLst=     1 CellRange=     0.0.
 One-electron integrals computed using PRISM.
 NBasis=    13 RedAO= F  NBF=    13
 NBsUse=    13 1.00D-04 NBFU=    13
 Leave Link  302 at Mon Jan  7 22:17:57 2013, MaxMem=  134217728 cpu:       0.2
 (Enter /Users/talipovmr/usr/local/g09/l303.exe)
 DipDrv:  MaxL=1.
 Leave Link  303 at Mon Jan  7 22:17:57 2013, MaxMem=  134217728 cpu:       0.1
 (Enter /Users/talipovmr/usr/local/g09/l401.exe)
 Initial guess read from the read-write file.
 B after Tr=     0.000000    0.000000    0.000000
         Rot=    1.000000    0.000000    0.000000    0.000000 Ang=   0.00 deg.
 Guess basis will be translated and rotated to current coordinates.
[...]
 DIIS: error= 9.01D-09 at cycle  11 NSaved=  11.
 NSaved=11 IEnMin=11 EnMin=-0.134351493345832E-01 IErMin=11 ErrMin= 9.01D-09
 ErrMax= 9.01D-09 EMaxC= 1.00D+00 BMatC= 1.96D-15 BMatP= 1.79D-14
 IDIUse=1 WtCom= 1.00D+00 WtEn= 0.00D+00
 Coeff-Com: -0.271D-03 0.104D-02-0.198D-02 0.341D-02-0.639D-02 0.120D-01
 Coeff-Com: -0.242D-01 0.588D-01-0.459D-01-0.621D+00 0.162D+01
 Coeff:     -0.271D-03 0.104D-02-0.198D-02 0.341D-02-0.639D-02 0.120D-01
 Coeff:     -0.242D-01 0.588D-01-0.459D-01-0.621D+00 0.162D+01
 Gap=     0.395 Goal=     0.100 Shift=    0.000
 RMSDP=1.64D-08 MaxDP=5.58D-08 DE=-1.42D-13 OVMax= 0.00D+00

 Cycle  12  Pass 1  IDiag  3:
 E=-0.134351493346045E-01 Delta-E=        0.000000000000 Rises=F Damp=F
 DIIS: error= 1.49D-09 at cycle  12 NSaved=  12.
 NSaved=12 IEnMin=12 EnMin=-0.134351493346045E-01 IErMin=12 ErrMin= 1.49D-09
 ErrMax= 1.49D-09 EMaxC= 1.00D+00 BMatC= 7.06D-17 BMatP= 1.96D-15
 IDIUse=1 WtCom= 1.00D+00 WtEn= 0.00D+00
 Coeff-Com:  0.901D-04-0.345D-03 0.654D-03-0.113D-02 0.224D-02-0.479D-02
 Coeff-Com:  0.108D-01-0.280D-01 0.202D-01 0.328D+00-0.921D+00 0.159D+01
 Coeff:      0.901D-04-0.345D-03 0.654D-03-0.113D-02 0.224D-02-0.479D-02
 Coeff:      0.108D-01-0.280D-01 0.202D-01 0.328D+00-0.921D+00 0.159D+01
 Gap=     0.395 Goal=     0.100 Shift=    0.000
 RMSDP=2.83D-09 MaxDP=9.50D-09 DE=-2.13D-14 OVMax= 0.00D+00

 Cycle  13  Pass 2  IDiag  1:
 Gap=     0.395 Goal=     0.100 Shift=    0.000
 RMSDP=2.83D-09 MaxDP=9.50D-09 DE=-2.13D-14 OVMax= 0.00D+00

 SCF Done:  E(RPM3) = -0.134351493346E-01 A.U. after   13 cycles
             Convg  =    0.2830D-08             -V/T =  0.9997
 KE=-4.668474898208D+01 PE=-6.216100690436D+01 EE= 4.745608820438D+01
 Leave Link  502 at Mon Jan  7 22:21:07 2013, MaxMem=  134217728 cpu:       0.1
 (Enter /Users/talipovmr/usr/local/g09/l508.exe)
 QCSCF skips out because SCF is already converged.
 Leave Link  508 at Mon Jan  7 22:21:07 2013, MaxMem=  134217728 cpu:       0.0
 (Enter /Users/talipovmr/usr/local/g09/l801.exe)
 Range of M.O.s used for correlation:     1    13
 NBasis=    13 NAE=     9 NBE=     9 NFC=     0 NFV=     0
 NROrb=     13 NOA=     9 NOB=     9 NVA=     4 NVB=     4
 Leave Link  801 at Mon Jan  7 22:21:07 2013, MaxMem=  134217728 cpu:       0.1
 (Enter /Users/talipovmr/usr/local/g09/l1101.exe)
 Leave Link 1101 at Mon Jan  7 22:21:07 2013, MaxMem=  134217728 cpu:       0.1
 (Enter /Users/talipovmr/usr/local/g09/l1102.exe)
 Symmetrizing basis deriv contribution to polar:
 IMax=3 JMax=2 DiffMx= 0.00D+00
 Leave Link 1102 at Mon Jan  7 22:21:07 2013, MaxMem=  134217728 cpu:       0.1
 (Enter /Users/talipovmr/usr/local/g09/l1110.exe)
 Leave Link 1110 at Mon Jan  7 22:21:07 2013, MaxMem=  134217728 cpu:       0.1
 (Enter /Users/talipovmr/usr/local/g09/l1002.exe)
 Minotr:  Closed shell wavefunction.
 Leave Link 1002 at Mon Jan  7 22:21:07 2013, MaxMem=  134217728 cpu:       0.1
 (Enter /Users/talipovmr/usr/local/g09/l701.exe)
 Compute integral first derivatives.
 ... and contract with generalized density number  0.
 Leave Link  701 at Mon Jan  7 22:21:07 2013, MaxMem=  134217728 cpu:       0.2
 (Enter /Users/talipovmr/usr/local/g09/l702.exe)
 L702 exits ... SP integral derivatives will be done elsewhere.
 Leave Link  702 at Mon Jan  7 22:21:07 2013, MaxMem=  134217728 cpu:       0.1
 (Enter /Users/talipovmr/usr/local/g09/l703.exe)
 Compute integral first derivatives, UseDBF=F ICtDFT=           0.
 Integral derivatives from FoFDir, PRISM(SPDF).
 Calling FoFJK, ICntrl=      2147 FMM=F ISym2X=0 I1Cent= 0 IOpClX= 0 NMat=1 NMatS=1 NMatT=0.
 FoFCou: FMM=F IPFlag=           0 FMFlag=      100000 FMFlg1=         800
         NFxFlg=           0 DoJE=F BraDBF=F KetDBF=F FulRan=T
         Omega=  0.000000  0.000000  1.000000  0.000000  0.000000 ICntrl=    2147 IOpCl=  0
         NMat0=    1 NMatS0=    1 NMatT0=    0 NMatD0=    1 NMtDS0=    0 NMtDT0=    0
         I1Cent=           0 NGrid=           0.
 Symmetry not used in FoFCou.
 Leave Link  703 at Mon Jan  7 22:21:07 2013, MaxMem=  134217728 cpu:       0.1
 (Enter /Users/talipovmr/usr/local/g09/l716.exe)
 Dipole        =-1.37305182D-01-3.74708559D-01 2.27751414D-01
 Polarizability= 0.00000000D+00 0.00000000D+00 0.00000000D+00
                 0.00000000D+00 0.00000000D+00 0.00000000D+00
 -------------------------------------------------------------------
 Center     Atomic                   Forces (Hartrees/Bohr)
 Number     Number              X              Y              Z
 -------------------------------------------------------------------
      1        8          -0.002655543    0.012197569    0.014263758
      2        7           0.012375171   -0.022558535   -0.014643607
      3        8          -0.011610384    0.008224412    0.006112692
      4        1           0.001890757    0.002136553   -0.005732843
 -------------------------------------------------------------------
 Cartesian Forces:  Max     0.022558535 RMS     0.011241913
 Leave Link  716 at Mon Jan  7 22:21:07 2013, MaxMem=  134217728 cpu:       0.1
 (Enter /Users/talipovmr/usr/local/g09/l123.exe)
 IRC-IRC-IRC-IRC-IRC-IRC-IRC-IRC-IRC-IRC-IRC-IRC-IRC-IRC-IRC-IRC-IRC-IRC
 Pt178 Step number   1 out of a maximum of 200
 Point Number: 178          Path Number:   1
                    CURRENT STRUCTURE
                Cartesian Coordinates (Ang):                
 ---------------------------------------------------------------------
 Center     Atomic                     Coordinates (Angstroms)
 Number     Number                        X           Y           Z
 ---------------------------------------------------------------------
      1          8                    0.965932   -0.514439   -0.109390
      2          7                    0.030142    0.527790    0.211995
      3          8                   -1.025330    0.136494   -0.082617
      4          1                    0.523878   -1.335045    0.101767
 ---------------------------------------------------------------------
   CHANGE IN THE REACTION COORDINATE =    0.06367
   NET REACTION COORDINATE UP TO THIS POINT =    3.41300
  # OF POINTS ALONG THE PATH = 178
  # OF STEPS =   1

 Calculating another point on the path.
 Point Number179 in FORWARD path direction.
 Using DVV Reaction Path Following.
 DVV: v0 =  0.0600000
 DVV: Current Time Step =  1.2265166
 DVV: New Time Step     =  1.1529767
 IRC-IRC-IRC-IRC-IRC-IRC-IRC-IRC-IRC-IRC-IRC-IRC-IRC-IRC-IRC-IRC-IRC-IRC
 Leave Link  123 at Mon Jan  7 22:21:07 2013, MaxMem=  134217728 cpu:       0.0
 (Enter /Users/talipovmr/usr/local/g09/l202.exe)
                          Input orientation:                          
 ---------------------------------------------------------------------
 Center     Atomic      Atomic             Coordinates (Angstroms)
 Number     Number       Type             X           Y           Z
 ---------------------------------------------------------------------
      1          8           0        0.970551   -0.518618   -0.111252
      2          7           0        0.025866    0.531248    0.213820
      3          8           0       -1.026553    0.137554   -0.082907
      4          1           0        0.529402   -1.333578    0.110572
 ---------------------------------------------------------------------
                    Distance matrix (angstroms):
                    1          2          3          4
     1  O    0.000000
     2  N    1.449248   0.000000
     3  O    2.102330   1.162166   0.000000
     4  H    0.952879   1.934370   2.150038   0.000000
 Symmetry turned off by external request.
 Stoichiometry    HNO2
 Framework group  C1[X(HNO2)]
 Deg. of freedom     6
 Full point group                 C1      NOp   1
 Rotational constants (GHZ):     74.0602723     13.6708723     11.6834678
 Leave Link  202 at Mon Jan  7 22:21:08 2013, MaxMem=  134217728 cpu:       0.0
 (Enter /Users/talipovmr/usr/local/g09/l301.exe)
 Standard basis: VSTO-6G (5D, 7F)
 Ernie: Thresh=  0.10000D-02 Tol=  0.10000D-05 Strict=F.
  NNHCO=     0 NNPyr=     0 NCTC=     0               EPep=         0.000000000
    EC=        32.143457576  ECS=         1.081731935   EG=         0.085322117
   EHC=         0.000000000  EAt=       -27.538897446  AtH=         0.452933404
 EPDDG=         0.000000000  ECC=        33.310511628 EAtT=        27.991830850
 Integral buffers will be    131072 words long.
 Regular integral format.
 Two-electron integral symmetry is turned off.
    13 basis functions,    78 primitive gaussians,    13 cartesian basis functions
     9 alpha electrons        9 beta electrons
       nuclear repulsion energy        61.3023424788 Hartrees.
 IExCor=    0 DFT=F Ex=HF Corr=None ExCW=0 ScaHFX=  1.000000
 ScaDFX=  1.000000  1.000000  1.000000  1.000000 ScalE2=  1.000000  1.000000
 IRadAn=      0 IRanWt=     -1 IRanGd=            0 ICorTp=0
 Leave Link  301 at Mon Jan  7 22:21:08 2013, MaxMem=  134217728 cpu:       0.1
 (Enter /Users/talipovmr/usr/local/g09/l302.exe)
 Do NDO integrals.
 NPDir=0 NMtPBC=     1 NCelOv=     1 NCel=       1 NClECP=     1 NCelD=      1
         NCelK=      1 NCelE2=     1 NClLst=     1 CellRange=     0.0.
 One-electron integrals computed using PRISM.
 NBasis=    13 RedAO= F  NBF=    13
 NBsUse=    13 1.00D-04 NBFU=    13
 Leave Link  302 at Mon Jan  7 22:21:08 2013, MaxMem=  134217728 cpu:       0.2
 (Enter /Users/talipovmr/usr/local/g09/l303.exe)
 DipDrv:  MaxL=1.
 Leave Link  303 at Mon Jan  7 22:21:08 2013, MaxMem=  134217728 cpu:       0.1
 (Enter /Users/talipovmr/usr/local/g09/l401.exe)
 Initial guess read from the read-write file.
 B after Tr=     0.000000    0.000000    0.000000
         Rot=    1.000000    0.000000    0.000000    0.000000 Ang=   0.00 deg.
 Guess basis will be translated and rotated to current coordinates.
 Leave Link  401 at Mon Jan  7 22:21:08 2013, MaxMem=  134217728 cpu:       0.2
 (Enter /Users/talipovmr/usr/local/g09/l502.exe)
 Closed shell SCF:
 Requested convergence on RMS density matrix=1.00D-08 within 128 cycles.
 Requested convergence on MAX density matrix=1.00D-06.
 Requested convergence on             energy=1.00D-06.
 Level shift goal  0.100 maximum shift  0.100.
 No special actions if energy rises.
 Dynamic level shift is on during FON iterations.
 Using DIIS extrapolation, IDIIS=    10.
 Overlap will be assumed to be unity.
 Two-electron integral symmetry not used.
 Keep J ints in memory in canonical form, NReq=879130.
 IEnd=       78620 IEndB=       78620 NGot=   134217728 MDV=   134155687
 LenX=   134155687 LenY=   134154805
 Symmetry not used in FoFDir.
 MinBra= 0 MaxBra= 1 Meth= 9.
 IRaf=       0 NMat=   1 IRICut=       1 DoRegI=T DoRafI=F ISym2E= 0 JSym2E=0.

 Cycle   1  Pass 1  IDiag  1:
 E=-0.127948314555084E-01
 DIIS: error= 8.88D-04 at cycle   1 NSaved=   1.
 NSaved= 1 IEnMin= 1 EnMin=-0.127948314555084E-01 IErMin= 1 ErrMin= 8.88D-04
 ErrMax= 8.88D-04 EMaxC= 1.00D+00 BMatC= 3.07D-05 BMatP= 3.07D-05
 IDIUse=1 WtCom= 1.00D+00 WtEn= 0.00D+00
 Coeff-Com:  0.100D+01
 Coeff:      0.100D+01
 Gap=     0.395 Goal=     0.100 Shift=    0.000
 RMSDP=7.68D-04 MaxDP=2.55D-03              OVMax= 0.00D+00

 Cycle   2  Pass 1  IDiag  3:
 E=-0.128926235139488E-01 Delta-E=       -0.000097792058 Rises=F Damp=F
 DIIS: error= 4.22D-04 at cycle   2 NSaved=   2.
 NSaved= 2 IEnMin= 2 EnMin=-0.128926235139488E-01 IErMin= 2 ErrMin= 4.22D-04
 ErrMax= 4.22D-04 EMaxC= 1.00D+00 BMatC= 3.89D-06 BMatP= 3.07D-05
 IDIUse=1 WtCom= 1.00D+00 WtEn= 0.00D+00
 Coeff-Com: -0.425D+00 0.142D+01
 Coeff:     -0.425D+00 0.142D+01
 Gap=     0.394 Goal=     0.100 Shift=    0.000
 RMSDP=4.53D-04 MaxDP=2.01D-03 DE=-9.78D-05 OVMax= 0.00D+00

 Cycle   3  Pass 1  IDiag  3:
 E=-0.129122135728323E-01 Delta-E=       -0.000019590059 Rises=F Damp=F
 DIIS: error= 1.85D-04 at cycle   3 NSaved=   3.
 NSaved= 3 IEnMin= 3 EnMin=-0.129122135728323E-01 IErMin= 3 ErrMin= 1.85D-04
 ErrMax= 1.85D-04 EMaxC= 1.00D+00 BMatC= 3.41D-07 BMatP= 3.89D-06
 IDIUse=1 WtCom= 1.00D+00 WtEn= 0.00D+00
 Coeff-Com:  0.289D+00-0.110D+01 0.181D+01
 Coeff:      0.289D+00-0.110D+01 0.181D+01
 Gap=     0.394 Goal=     0.100 Shift=    0.000
 RMSDP=2.19D-04 MaxDP=1.12D-03 DE=-1.96D-05 OVMax= 0.00D+00

 Cycle   4  Pass 1  IDiag  3:
 E=-0.129150013991435E-01 Delta-E=       -0.000002787826 Rises=F Damp=F
 DIIS: error= 3.78D-05 at cycle   4 NSaved=   4.
 NSaved= 4 IEnMin= 4 EnMin=-0.129150013991435E-01 IErMin= 4 ErrMin= 3.78D-05
 ErrMax= 3.78D-05 EMaxC= 1.00D+00 BMatC= 2.42D-08 BMatP= 3.41D-07
 IDIUse=1 WtCom= 1.00D+00 WtEn= 0.00D+00
 Coeff-Com: -0.158D+00 0.608D+00-0.117D+01 0.172D+01
 Coeff:     -0.158D+00 0.608D+00-0.117D+01 0.172D+01
 Gap=     0.394 Goal=     0.100 Shift=    0.000
 RMSDP=7.00D-05 MaxDP=2.94D-04 DE=-2.79D-06 OVMax= 0.00D+00

 Cycle   5  Pass 1  IDiag  3:
 E=-0.129152364781717E-01 Delta-E=       -0.000000235079 Rises=F Damp=F
 DIIS: error= 1.24D-05 at cycle   5 NSaved=   5.
 NSaved= 5 IEnMin= 5 EnMin=-0.129152364781717E-01 IErMin= 5 ErrMin= 1.24D-05
 ErrMax= 1.24D-05 EMaxC= 1.00D+00 BMatC= 2.22D-09 BMatP= 2.42D-08
 IDIUse=1 WtCom= 1.00D+00 WtEn= 0.00D+00
 Coeff-Com:  0.661D-01-0.256D+00 0.515D+00-0.955D+00 0.163D+01
 Coeff:      0.661D-01-0.256D+00 0.515D+00-0.955D+00 0.163D+01
 Gap=     0.394 Goal=     0.100 Shift=    0.000
 RMSDP=2.24D-05 MaxDP=8.43D-05 DE=-2.35D-07 OVMax= 0.00D+00

 Cycle   6  Pass 1  IDiag  3:
 E=-0.129152622680593E-01 Delta-E=       -0.000000025790 Rises=F Damp=F
 DIIS: error= 5.78D-06 at cycle   6 NSaved=   6.
 NSaved= 6 IEnMin= 6 EnMin=-0.129152622680593E-01 IErMin= 6 ErrMin= 5.78D-06
 ErrMax= 5.78D-06 EMaxC= 1.00D+00 BMatC= 4.66D-10 BMatP= 2.22D-09
 IDIUse=1 WtCom= 1.00D+00 WtEn= 0.00D+00
 Coeff-Com: -0.222D-01 0.860D-01-0.179D+00 0.390D+00-0.105D+01 0.178D+01
 Coeff:     -0.222D-01 0.860D-01-0.179D+00 0.390D+00-0.105D+01 0.178D+01
 Gap=     0.394 Goal=     0.100 Shift=    0.000
 RMSDP=1.26D-05 MaxDP=5.18D-05 DE=-2.58D-08 OVMax= 0.00D+00

 Cycle   7  Pass 1  IDiag  3:
 E=-0.129152693522272E-01 Delta-E=       -0.000000007084 Rises=F Damp=F
 DIIS: error= 2.57D-06 at cycle   7 NSaved=   7.
 NSaved= 7 IEnMin= 7 EnMin=-0.129152693522272E-01 IErMin= 7 ErrMin= 2.57D-06
 ErrMax= 2.57D-06 EMaxC= 1.00D+00 BMatC= 1.21D-10 BMatP= 4.66D-10
 IDIUse=1 WtCom= 1.00D+00 WtEn= 0.00D+00
 Coeff-Com:  0.138D-03-0.425D-03 0.590D-02-0.635D-01 0.484D+00-0.169D+01
 Coeff-Com:  0.227D+01
 Coeff:      0.138D-03-0.425D-03 0.590D-02-0.635D-01 0.484D+00-0.169D+01
 Coeff:      0.227D+01
 Gap=     0.394 Goal=     0.100 Shift=    0.000
 RMSDP=1.01D-05 MaxDP=4.07D-05 DE=-7.08D-09 OVMax= 0.00D+00

 Cycle   8  Pass 1  IDiag  3:
 E=-0.129152716267313E-01 Delta-E=       -0.000000002275 Rises=F Damp=F
 DIIS: error= 4.18D-07 at cycle   8 NSaved=   8.
 NSaved= 8 IEnMin= 8 EnMin=-0.129152716267313E-01 IErMin= 8 ErrMin= 4.18D-07
 ErrMax= 4.18D-07 EMaxC= 1.00D+00 BMatC= 8.34D-12 BMatP= 1.21D-10
 IDIUse=1 WtCom= 1.00D+00 WtEn= 0.00D+00
 Coeff-Com:  0.209D-02-0.797D-02 0.125D-01 0.114D-01-0.266D+00 0.110D+01
 Coeff-Com: -0.169D+01 0.184D+01
 Coeff:      0.209D-02-0.797D-02 0.125D-01 0.114D-01-0.266D+00 0.110D+01
 Coeff:     -0.169D+01 0.184D+01
 Gap=     0.394 Goal=     0.100 Shift=    0.000
 RMSDP=1.99D-06 MaxDP=7.55D-06 DE=-2.27D-09 OVMax= 0.00D+00

 Cycle   9  Pass 1  IDiag  3:
 E=-0.129152717272731E-01 Delta-E=       -0.000000000101 Rises=F Damp=F
 DIIS: error= 9.87D-08 at cycle   9 NSaved=   9.
 NSaved= 9 IEnMin= 9 EnMin=-0.129152717272731E-01 IErMin= 9 ErrMin= 9.87D-08
 ErrMax= 9.87D-08 EMaxC= 1.00D+00 BMatC= 4.49D-13 BMatP= 8.34D-12
 IDIUse=1 WtCom= 1.00D+00 WtEn= 0.00D+00
 Coeff-Com: -0.137D-02 0.522D-02-0.879D-02-0.101D-02 0.127D+00-0.548D+00
 Coeff-Com:  0.866D+00-0.109D+01 0.165D+01
 Coeff:     -0.137D-02 0.522D-02-0.879D-02-0.101D-02 0.127D+00-0.548D+00
 Coeff:      0.866D+00-0.109D+01 0.165D+01
 Gap=     0.394 Goal=     0.100 Shift=    0.000
 RMSDP=2.99D-07 MaxDP=9.28D-07 DE=-1.01D-10 OVMax= 0.00D+00

 Cycle  10  Pass 1  IDiag  3:
 E=-0.129152717308898E-01 Delta-E=       -0.000000000004 Rises=F Damp=F
 DIIS: error= 2.92D-08 at cycle  10 NSaved=  10.
 NSaved=10 IEnMin=10 EnMin=-0.129152717308898E-01 IErMin=10 ErrMin= 2.92D-08
 ErrMax= 2.92D-08 EMaxC= 1.00D+00 BMatC= 2.15D-14 BMatP= 4.49D-13
 IDIUse=1 WtCom= 1.00D+00 WtEn= 0.00D+00
 Coeff-Com:  0.997D-03-0.382D-02 0.649D-02-0.326D-04-0.870D-01 0.382D+00
 Coeff-Com: -0.604D+00 0.761D+00-0.126D+01 0.180D+01
 Coeff:      0.997D-03-0.382D-02 0.649D-02-0.326D-04-0.870D-01 0.382D+00
 Coeff:     -0.604D+00 0.761D+00-0.126D+01 0.180D+01
 Gap=     0.394 Goal=     0.100 Shift=    0.000
 RMSDP=5.84D-08 MaxDP=1.84D-07 DE=-3.62D-12 OVMax= 0.00D+00

 Cycle  11  Pass 1  IDiag  3:
 E=-0.129152717310390E-01 Delta-E=        0.000000000000 Rises=F Damp=F
 DIIS: error= 3.77D-09 at cycle  11 NSaved=  11.
 NSaved=11 IEnMin=11 EnMin=-0.129152717310390E-01 IErMin=11 ErrMin= 3.77D-09
 ErrMax= 3.77D-09 EMaxC= 1.00D+00 BMatC= 3.42D-16 BMatP= 2.15D-14
 IDIUse=1 WtCom= 1.00D+00 WtEn= 0.00D+00
 Coeff-Com: -0.334D-03 0.128D-02-0.221D-02 0.356D-03 0.266D-01-0.119D+00
 Coeff-Com:  0.189D+00-0.238D+00 0.399D+00-0.645D+00 0.139D+01
 Coeff:     -0.334D-03 0.128D-02-0.221D-02 0.356D-03 0.266D-01-0.119D+00
 Coeff:      0.189D+00-0.238D+00 0.399D+00-0.645D+00 0.139D+01
 Gap=     0.394 Goal=     0.100 Shift=    0.000
 RMSDP=6.18D-09 MaxDP=1.89D-08 DE=-1.49D-13 OVMax= 0.00D+00

 Cycle  12  Pass 2  IDiag  1:
 Gap=     0.394 Goal=     0.100 Shift=    0.000
 RMSDP=6.18D-09 MaxDP=1.89D-08 DE=-1.49D-13 OVMax= 0.00D+00

 SCF Done:  E(RPM3) = -0.129152717310E-01 A.U. after   12 cycles
             Convg  =    0.6180D-08             -V/T =  0.9997
 KE=-4.667242426638D+01 PE=-6.203640691808D+01 EE= 4.739357343393D+01
 Leave Link  502 at Mon Jan  7 22:21:08 2013, MaxMem=  134217728 cpu:       0.1
 (Enter /Users/talipovmr/usr/local/g09/l508.exe)
 QCSCF skips out because SCF is already converged.
 Leave Link  508 at Mon Jan  7 22:21:08 2013, MaxMem=  134217728 cpu:       0.0
 (Enter /Users/talipovmr/usr/local/g09/l801.exe)
 Range of M.O.s used for correlation:     1    13
 NBasis=    13 NAE=     9 NBE=     9 NFC=     0 NFV=     0
 NROrb=     13 NOA=     9 NOB=     9 NVA=     4 NVB=     4
 Leave Link  801 at Mon Jan  7 22:21:08 2013, MaxMem=  134217728 cpu:       0.1
 (Enter /Users/talipovmr/usr/local/g09/l1101.exe)
 Leave Link 1101 at Mon Jan  7 22:21:08 2013, MaxMem=  134217728 cpu:       0.1
 (Enter /Users/talipovmr/usr/local/g09/l1102.exe)
 Symmetrizing basis deriv contribution to polar:
 IMax=3 JMax=2 DiffMx= 0.00D+00
 Leave Link 1102 at Mon Jan  7 22:21:08 2013, MaxMem=  134217728 cpu:       0.1
 (Enter /Users/talipovmr/usr/local/g09/l1110.exe)
 Leave Link 1110 at Mon Jan  7 22:21:08 2013, MaxMem=  134217728 cpu:       0.1
 (Enter /Users/talipovmr/usr/local/g09/l1002.exe)
 Minotr:  Closed shell wavefunction.
 Leave Link 1002 at Mon Jan  7 22:21:08 2013, MaxMem=  134217728 cpu:       0.1
 (Enter /Users/talipovmr/usr/local/g09/l701.exe)
 Compute integral first derivatives.
 ... and contract with generalized density number  0.
 Leave Link  701 at Mon Jan  7 22:21:08 2013, MaxMem=  134217728 cpu:       0.1
 (Enter /Users/talipovmr/usr/local/g09/l702.exe)
 L702 exits ... SP integral derivatives will be done elsewhere.
 Leave Link  702 at Mon Jan  7 22:21:08 2013, MaxMem=  134217728 cpu:       0.1
 (Enter /Users/talipovmr/usr/local/g09/l703.exe)
 Compute integral first derivatives, UseDBF=F ICtDFT=           0.
 Integral derivatives from FoFDir, PRISM(SPDF).
 Calling FoFJK, ICntrl=      2147 FMM=F ISym2X=0 I1Cent= 0 IOpClX= 0 NMat=1 NMatS=1 NMatT=0.
 FoFCou: FMM=F IPFlag=           0 FMFlag=      100000 FMFlg1=         800
         NFxFlg=           0 DoJE=F BraDBF=F KetDBF=F FulRan=T
         Omega=  0.000000  0.000000  1.000000  0.000000  0.000000 ICntrl=    2147 IOpCl=  0
         NMat0=    1 NMatS0=    1 NMatT0=    0 NMatD0=    1 NMtDS0=    0 NMtDT0=    0
         I1Cent=           0 NGrid=           0.
 Symmetry not used in FoFCou.
 Leave Link  703 at Mon Jan  7 22:21:08 2013, MaxMem=  134217728 cpu:       0.1
 (Enter /Users/talipovmr/usr/local/g09/l716.exe)
 Dipole        =-1.61024924D-01-3.60630434D-01 2.34560274D-01
