 Entering Gaussian System, Link 0=g09
 Input=ts.com
 Output=ts.log
 AtFile(1): ts.xyz
            O          0.89729       -0.58815        0.00000
            N          0.00000        0.52182        0.00000
            O         -1.11849        0.15038        0.00000
            H          0.98541       -0.78457       -0.94544
 Initial command:
 /Users/talipovmr/usr/local/g09/l1.exe /tmp/Gau-97890.inp -scrdir=/tmp/
 Entering Link 1 = /Users/talipovmr/usr/local/g09/l1.exe PID=     97891.
  
 Copyright (c) 1988,1990,1992,1993,1995,1998,2003,2009, Gaussian, Inc.
                  All Rights Reserved.
  
 This is part of the Gaussian(R) 09 program.  It is based on
 the Gaussian(R) 03 system (copyright 2003, Gaussian, Inc.),
 the Gaussian(R) 98 system (copyright 1998, Gaussian, Inc.),
 the Gaussian(R) 94 system (copyright 1995, Gaussian, Inc.),
 the Gaussian 92(TM) system (copyright 1992, Gaussian, Inc.),
 the Gaussian 90(TM) system (copyright 1990, Gaussian, Inc.),
 the Gaussian 88(TM) system (copyright 1988, Gaussian, Inc.),
 the Gaussian 86(TM) system (copyright 1986, Carnegie Mellon
 University), and the Gaussian 82(TM) system (copyright 1983,
 Carnegie Mellon University). Gaussian is a federally registered
 trademark of Gaussian, Inc.
  
 This software contains proprietary and confidential information,
 including trade secrets, belonging to Gaussian, Inc.
  
 This software is provided under written license and may be
 used, copied, transmitted, or stored only in accord with that
 written license.
  
 The following legend is applicable only to US Government
 contracts under FAR:
  
                    RESTRICTED RIGHTS LEGEND
  
 Use, reproduction and disclosure by the US Government is
 subject to restrictions as set forth in subparagraphs (a)
 and (c) of the Commercial Computer Software - Restricted
 Rights clause in FAR 52.227-19.
  
 Gaussian, Inc.
 340 Quinnipiac St., Bldg. 40, Wallingford CT 06492
  
  
 ---------------------------------------------------------------
 Warning -- This program may not be used in any manner that
 competes with the business of Gaussian, Inc. or will provide
 assistance to any competitor of Gaussian, Inc.  The licensee
 of this program is prohibited from giving any competitor of
 Gaussian, Inc. access to this program.  By using this program,
 the user acknowledges that Gaussian, Inc. is engaged in the
 business of creating and licensing software in the field of
 computational chemistry and represents and warrants to the
 licensee that it is not a competitor of Gaussian, Inc. and that
 it will not use this program in any manner prohibited above.
 ---------------------------------------------------------------
  

 Cite this work as:
 Gaussian 09, Revision A.02,
 M. J. Frisch, G. W. Trucks, H. B. Schlegel, G. E. Scuseria, 
 M. A. Robb, J. R. Cheeseman, G. Scalmani, V. Barone, B. Mennucci, 
 G. A. Petersson, H. Nakatsuji, M. Caricato, X. Li, H. P. Hratchian, 
 A. F. Izmaylov, J. Bloino, G. Zheng, J. L. Sonnenberg, M. Hada, 
 M. Ehara, K. Toyota, R. Fukuda, J. Hasegawa, M. Ishida, T. Nakajima, 
 Y. Honda, O. Kitao, H. Nakai, T. Vreven, J. A. Montgomery, Jr., 
 J. E. Peralta, F. Ogliaro, M. Bearpark, J. J. Heyd, E. Brothers, 
 K. N. Kudin, V. N. Staroverov, R. Kobayashi, J. Normand, 
 K. Raghavachari, A. Rendell, J. C. Burant, S. S. Iyengar, J. Tomasi, 
 M. Cossi, N. Rega, J. M. Millam, M. Klene, J. E. Knox, J. B. Cross, 
 V. Bakken, C. Adamo, J. Jaramillo, R. Gomperts, R. E. Stratmann, 
 O. Yazyev, A. J. Austin, R. Cammi, C. Pomelli, J. W. Ochterski, 
 R. L. Martin, K. Morokuma, V. G. Zakrzewski, G. A. Voth, 
 P. Salvador, J. J. Dannenberg, S. Dapprich, A. D. Daniels, 
 O. Farkas, J. B. Foresman, J. V. Ortiz, J. Cioslowski, 
 and D. J. Fox, Gaussian, Inc., Wallingford CT, 2009.
 
 ******************************************
 Gaussian 09:  EM64M-G09RevA.02 11-Jun-2009
                 7-Jan-2013 
 ******************************************
 %nproc=2
 Will use up to    2 processors via shared memory.
 %mem=1Gb
 %chk=ts.chk
 --------------------------------------
 #p pm3 opt(ts,calcfc,noeigentest) freq
 --------------------------------------
 1/5=1,10=4,11=1,14=-1,18=20,26=1,38=1/1,3;
 2/9=110,12=2,17=6,18=5,40=1/2;
 3/5=2,16=1,25=1,41=800000,71=2/1,2,3;
 4/35=1/1;
 5/5=2,35=1,38=5/2;
 8/6=4,10=90,11=11/1;
 11/6=1,8=1,9=11,15=111,16=1/1,2,10;
 10/6=1,7=6,13=1/2;
 6/7=2,8=2,9=2,10=2,28=1/1;
 7/10=1,18=20,25=1/1,2,3,16;
 1/5=1,10=4,11=1,14=-1,18=20/3(2);
 2/9=110/2;
 99//99;
 2/9=110/2;
 3/5=2,16=1,25=1,41=800000,71=1,135=20/1,2,3;
 4/5=5,16=3,35=1/1;
 5/5=2,35=1,38=5/2;
 7//1,2,3,16;
 1/5=1,11=1,14=-1,18=20/3(-5);
 2/9=110/2;
 6/7=2,8=2,9=2,10=2,19=2,28=1/1;
 99/9=1/99;
 Leave Link    1 at Mon Jan  7 22:11:01 2013, MaxMem=  134217728 cpu:       0.3
 (Enter /Users/talipovmr/usr/local/g09/l101.exe)


 Symbolic Z-matrix:
 Charge =  0 Multiplicity = 1
 O                     0.89729  -0.58815   0. 
 N                     0.        0.52182   0. 
 O                    -1.11849   0.15038   0. 
 H                     0.98541  -0.78457  -0.94544 
 
 NAtoms=      4 NQM=      4 NQMF=      0 NMic=      0 NMicF=      0 NTot=      4.
                    Isotopes and Nuclear Properties:
 (Nuclear quadrupole moments (NQMom) in fm**2, nuclear magnetic moments (NMagM)
  in nuclear magnetons)

  Atom         1           2           3           4
 IAtWgt=          16          14          16           1
 AtmWgt=  15.9949146  14.0030740  15.9949146   1.0078250
 NucSpn=           0           2           0           1
 AtZEff=   0.0000000   0.0000000   0.0000000   0.0000000
 NQMom=    0.0000000   2.0440000   0.0000000   0.0000000
 NMagM=    0.0000000   0.4037610   0.0000000   2.7928460
 Leave Link  101 at Mon Jan  7 22:11:01 2013, MaxMem=  134217728 cpu:       0.3
 (Enter /Users/talipovmr/usr/local/g09/l103.exe)

 GradGradGradGradGradGradGradGradGradGradGradGradGradGradGradGradGradGrad
 Berny optimization.
 Initialization pass.
                           ----------------------------
                           !    Initial Parameters    !
                           ! (Angstroms and Degrees)  !
 --------------------------                            --------------------------
 ! Name  Definition              Value          Derivative Info.                !
 --------------------------------------------------------------------------------
 ! R1    R(1,2)                  1.4273         calculate D2E/DX2 analytically  !
 ! R2    R(1,4)                  0.9696         calculate D2E/DX2 analytically  !
 ! R3    R(2,3)                  1.1786         calculate D2E/DX2 analytically  !
 ! A1    A(2,1,4)              102.3959         calculate D2E/DX2 analytically  !
 ! A2    A(1,2,3)              110.5809         calculate D2E/DX2 analytically  !
 ! D1    D(4,1,2,3)             86.6734         calculate D2E/DX2 analytically  !
 --------------------------------------------------------------------------------
 Trust Radius=3.00D-01 FncErr=1.00D-07 GrdErr=1.00D-07
 Number of steps in this run=  20 maximum allowed number of steps= 100.
 Search for a saddle point of order  1.
 GradGradGradGradGradGradGradGradGradGradGradGradGradGradGradGradGradGrad

 Leave Link  103 at Mon Jan  7 22:11:02 2013, MaxMem=  134217728 cpu:       0.1
 (Enter /Users/talipovmr/usr/local/g09/l202.exe)
                          Input orientation:                          
 ---------------------------------------------------------------------
 Center     Atomic      Atomic             Coordinates (Angstroms)
 Number     Number       Type             X           Y           Z
 ---------------------------------------------------------------------
      1          8           0        0.897290   -0.588150    0.000000
      2          7           0        0.000000    0.521820    0.000000
      3          8           0       -1.118490    0.150380    0.000000
      4          1           0        0.985410   -0.784570   -0.945440
 ---------------------------------------------------------------------
                    Distance matrix (angstroms):
                    1          2          3          4
     1  O    0.000000
     2  N    1.427292   0.000000
     3  O    2.146811   1.178553   0.000000
     4  H    0.969641   1.889853   2.488852   0.000000
 Stoichiometry    HNO2
 Framework group  C1[X(HNO2)]
 Deg. of freedom     6
 Full point group                 C1      NOp   1
 Largest Abelian subgroup         C1      NOp   1
 Largest concise Abelian subgroup C1      NOp   1
                         Standard orientation:                         
 ---------------------------------------------------------------------
 Center     Atomic      Atomic             Coordinates (Angstroms)
 Number     Number       Type             X           Y           Z
 ---------------------------------------------------------------------
      1          8           0       -1.072399   -0.129105   -0.123378
      2          7           0        0.190328    0.514784    0.044217
      3          8           0        1.066874   -0.270954   -0.012989
      4          1           0       -1.288092   -0.403016    0.781416
 ---------------------------------------------------------------------
 Rotational constants (GHZ):     82.1383839     12.7606316     11.4574283
 Leave Link  202 at Mon Jan  7 22:11:02 2013, MaxMem=  134217728 cpu:       0.0
 (Enter /Users/talipovmr/usr/local/g09/l301.exe)
 Standard basis: VSTO-6G (5D, 7F)
 Ernie: Thresh=  0.10000D-02 Tol=  0.10000D-05 Strict=F.
  NNHCO=     0 NNPyr=     0 NCTC=     0               EPep=         0.000000000
    EC=        31.849288492  ECS=         1.051145513   EG=         0.090960667
   EHC=         0.000000000  EAt=       -27.538897446  AtH=         0.452933404
 EPDDG=         0.000000000  ECC=        32.991394672 EAtT=        27.991830850
 There are    13 symmetry adapted basis functions of A   symmetry.
 Integral buffers will be    131072 words long.
 Regular integral format.
 Two-electron integral symmetry is turned off.
    13 basis functions,    78 primitive gaussians,    13 cartesian basis functions
     9 alpha electrons        9 beta electrons
       nuclear repulsion energy        60.9832255223 Hartrees.
 IExCor=    0 DFT=F Ex=HF Corr=None ExCW=0 ScaHFX=  1.000000
 ScaDFX=  1.000000  1.000000  1.000000  1.000000 ScalE2=  1.000000  1.000000
 IRadAn=      0 IRanWt=     -1 IRanGd=            0 ICorTp=0
 Leave Link  301 at Mon Jan  7 22:11:02 2013, MaxMem=  134217728 cpu:       0.1
 (Enter /Users/talipovmr/usr/local/g09/l302.exe)
 Do NDO integrals.
 NPDir=0 NMtPBC=     1 NCelOv=     1 NCel=       1 NClECP=     1 NCelD=      1
         NCelK=      1 NCelE2=     1 NClLst=     1 CellRange=     0.0.
 One-electron integrals computed using PRISM.
 NBasis=    13 RedAO= F  NBF=    13
 NBsUse=    13 1.00D-04 NBFU=    13
 Leave Link  302 at Mon Jan  7 22:11:02 2013, MaxMem=  134217728 cpu:       0.2
 (Enter /Users/talipovmr/usr/local/g09/l303.exe)
 DipDrv:  MaxL=1.
 Leave Link  303 at Mon Jan  7 22:11:02 2013, MaxMem=  134217728 cpu:       0.1
 (Enter /Users/talipovmr/usr/local/g09/l401.exe)
 Simple Huckel Guess.
 Initial guess orbital symmetries:
       Occupied  (A) (A) (A) (A) (A) (A) (A) (A) (A)
       Virtual   (A) (A) (A) (A)
 The electronic state of the initial guess is 1-A.
 Leave Link  401 at Mon Jan  7 22:11:02 2013, MaxMem=  134217728 cpu:       0.1
 (Enter /Users/talipovmr/usr/local/g09/l502.exe)
 Closed shell SCF:
 Requested convergence on RMS density matrix=1.00D-08 within 128 cycles.
 Requested convergence on MAX density matrix=1.00D-06.
 Requested convergence on             energy=1.00D-06.
 No special actions if energy rises.
 Using DIIS extrapolation, IDIIS=  1040.
 Overlap will be assumed to be unity.
 Two-electron integral symmetry not used.
 Keep J ints in memory in canonical form, NReq=879130.
 IEnd=       78620 IEndB=       78620 NGot=   134217728 MDV=   134155687
 LenX=   134155687 LenY=   134154805
 Symmetry not used in FoFDir.
 MinBra= 0 MaxBra= 1 Meth= 9.
 IRaf=       0 NMat=   1 IRICut=       1 DoRegI=T DoRafI=F ISym2E= 0 JSym2E=0.

 Cycle   1  Pass 1  IDiag  1:
 E= 0.325029999784050    
 DIIS: error= 7.27D-02 at cycle   1 NSaved=   1.
 NSaved= 1 IEnMin= 1 EnMin= 0.325029999784050     IErMin= 1 ErrMin= 7.27D-02
 ErrMax= 7.27D-02 EMaxC= 1.00D-01 BMatC= 1.28D-01 BMatP= 1.28D-01
 IDIUse=3 WtCom= 2.73D-01 WtEn= 7.27D-01
 Coeff-Com:  0.100D+01
 Coeff-En:   0.100D+01
 Coeff:      0.100D+01
 GapD=    2.000 DampG=2.000 DampE=0.500 DampFc=1.0000 IDamp=-1.
 RMSDP=3.81D-02 MaxDP=1.60D-01              OVMax= 0.00D+00

 Cycle   2  Pass 1  IDiag  1:
 E= 0.162958397188007E-01 Delta-E=       -0.308734160065 Rises=F Damp=F
 DIIS: error= 1.56D-02 at cycle   2 NSaved=   2.
 NSaved= 2 IEnMin= 2 EnMin= 0.162958397188007E-01 IErMin= 2 ErrMin= 1.56D-02
 ErrMax= 1.56D-02 EMaxC= 1.00D-01 BMatC= 8.74D-03 BMatP= 1.28D-01
 IDIUse=3 WtCom= 8.44D-01 WtEn= 1.56D-01
 Coeff-Com: -0.315D+00 0.132D+01
 Coeff-En:   0.000D+00 0.100D+01
 Coeff:     -0.266D+00 0.127D+01
 RMSDP=1.37D-02 MaxDP=4.03D-02 DE=-3.09D-01 OVMax= 0.00D+00

 Cycle   3  Pass 1  IDiag  3:
 E=-0.978742296796042E-02 Delta-E=       -0.026083262687 Rises=F Damp=F
 DIIS: error= 3.28D-03 at cycle   3 NSaved=   3.
 NSaved= 3 IEnMin= 3 EnMin=-0.978742296796042E-02 IErMin= 3 ErrMin= 3.28D-03
 ErrMax= 3.28D-03 EMaxC= 1.00D-01 BMatC= 2.77D-04 BMatP= 8.74D-03
 IDIUse=3 WtCom= 9.67D-01 WtEn= 3.28D-02
 Coeff-Com:  0.144D+00-0.702D+00 0.156D+01
 Coeff-En:   0.000D+00 0.000D+00 0.100D+01
 Coeff:      0.139D+00-0.679D+00 0.154D+01
 Gap=     0.382 Goal=   None    Shift=    0.000
 RMSDP=4.01D-03 MaxDP=1.70D-02 DE=-2.61D-02 OVMax= 0.00D+00

 Cycle   4  Pass 1  IDiag  3:
 E=-0.111500743037993E-01 Delta-E=       -0.001362651336 Rises=F Damp=F
 DIIS: error= 4.57D-04 at cycle   4 NSaved=   4.
 NSaved= 4 IEnMin= 4 EnMin=-0.111500743037993E-01 IErMin= 4 ErrMin= 4.57D-04
 ErrMax= 4.57D-04 EMaxC= 1.00D-01 BMatC= 8.06D-06 BMatP= 2.77D-04
 IDIUse=3 WtCom= 9.95D-01 WtEn= 4.57D-03
 Coeff-Com:  0.257D-02 0.464D-02-0.166D+00 0.116D+01
 Coeff-En:   0.000D+00 0.000D+00 0.000D+00 0.100D+01
 Coeff:      0.256D-02 0.462D-02-0.165D+00 0.116D+01
 Gap=     0.382 Goal=   None    Shift=    0.000
 RMSDP=7.02D-04 MaxDP=2.49D-03 DE=-1.36D-03 OVMax= 0.00D+00

 Cycle   5  Pass 1  IDiag  3:
 E=-0.111935206319203E-01 Delta-E=       -0.000043446328 Rises=F Damp=F
 DIIS: error= 1.29D-04 at cycle   5 NSaved=   5.
 NSaved= 5 IEnMin= 5 EnMin=-0.111935206319203E-01 IErMin= 5 ErrMin= 1.29D-04
 ErrMax= 1.29D-04 EMaxC= 1.00D-01 BMatC= 7.50D-07 BMatP= 8.06D-06
 IDIUse=3 WtCom= 9.99D-01 WtEn= 1.29D-03
 Coeff-Com: -0.628D-02 0.268D-01-0.186D-01-0.328D+00 0.133D+01
 Coeff-En:   0.000D+00 0.000D+00 0.000D+00 0.000D+00 0.100D+01
 Coeff:     -0.628D-02 0.268D-01-0.186D-01-0.328D+00 0.133D+01
 Gap=     0.382 Goal=   None    Shift=    0.000
 RMSDP=2.57D-04 MaxDP=7.75D-04 DE=-4.34D-05 OVMax= 0.00D+00

 Cycle   6  Pass 1  IDiag  3:
 E=-0.111991936937699E-01 Delta-E=       -0.000005673062 Rises=F Damp=F
 DIIS: error= 8.89D-05 at cycle   6 NSaved=   6.
 NSaved= 6 IEnMin= 6 EnMin=-0.111991936937699E-01 IErMin= 6 ErrMin= 8.89D-05
 ErrMax= 8.89D-05 EMaxC= 1.00D-01 BMatC= 1.63D-07 BMatP= 7.50D-07
 IDIUse=1 WtCom= 1.00D+00 WtEn= 0.00D+00
 Coeff-Com:  0.214D-02-0.102D-01 0.106D-01 0.121D+00-0.870D+00 0.175D+01
 Coeff:      0.214D-02-0.102D-01 0.106D-01 0.121D+00-0.870D+00 0.175D+01
 Gap=     0.382 Goal=   None    Shift=    0.000
 RMSDP=1.91D-04 MaxDP=7.48D-04 DE=-5.67D-06 OVMax= 0.00D+00

 Cycle   7  Pass 1  IDiag  3:
 E=-0.112011870763027E-01 Delta-E=       -0.000001993383 Rises=F Damp=F
 DIIS: error= 5.25D-05 at cycle   7 NSaved=   7.
 NSaved= 7 IEnMin= 7 EnMin=-0.112011870763027E-01 IErMin= 7 ErrMin= 5.25D-05
 ErrMax= 5.25D-05 EMaxC= 1.00D-01 BMatC= 3.98D-08 BMatP= 1.63D-07
 IDIUse=1 WtCom= 1.00D+00 WtEn= 0.00D+00
 Coeff-Com: -0.779D-03 0.422D-02-0.127D-02-0.976D-01 0.749D+00-0.192D+01
 Coeff-Com:  0.227D+01
 Coeff:     -0.779D-03 0.422D-02-0.127D-02-0.976D-01 0.749D+00-0.192D+01
 Coeff:      0.227D+01
 Gap=     0.382 Goal=   None    Shift=    0.000
 RMSDP=1.50D-04 MaxDP=6.41D-04 DE=-1.99D-06 OVMax= 0.00D+00

 Cycle   8  Pass 1  IDiag  3:
 E=-0.112019297963286E-01 Delta-E=       -0.000000742720 Rises=F Damp=F
 DIIS: error= 2.29D-05 at cycle   8 NSaved=   8.
 NSaved= 8 IEnMin= 8 EnMin=-0.112019297963286E-01 IErMin= 8 ErrMin= 2.29D-05
 ErrMax= 2.29D-05 EMaxC= 1.00D-01 BMatC= 7.64D-09 BMatP= 3.98D-08
 IDIUse=1 WtCom= 1.00D+00 WtEn= 0.00D+00
 Coeff-Com:  0.237D-03-0.163D-02-0.207D-02 0.716D-01-0.542D+00 0.147D+01
 Coeff-Com: -0.222D+01 0.222D+01
 Coeff:      0.237D-03-0.163D-02-0.207D-02 0.716D-01-0.542D+00 0.147D+01
 Coeff:     -0.222D+01 0.222D+01
 Gap=     0.382 Goal=   None    Shift=    0.000
 RMSDP=8.56D-05 MaxDP=3.64D-04 DE=-7.43D-07 OVMax= 0.00D+00

 Cycle   9  Pass 1  IDiag  3:
 E=-0.112020822306960E-01 Delta-E=       -0.000000152434 Rises=F Damp=F
 DIIS: error= 4.82D-06 at cycle   9 NSaved=   9.
 NSaved= 9 IEnMin= 9 EnMin=-0.112020822306960E-01 IErMin= 9 ErrMin= 4.82D-06
 ErrMax= 4.82D-06 EMaxC= 1.00D-01 BMatC= 6.29D-10 BMatP= 7.64D-09
 IDIUse=1 WtCom= 1.00D+00 WtEn= 0.00D+00
 Coeff-Com: -0.304D-04 0.347D-03 0.277D-02-0.431D-01 0.301D+00-0.826D+00
 Coeff-Com:  0.135D+01-0.166D+01 0.188D+01
 Coeff:     -0.304D-04 0.347D-03 0.277D-02-0.431D-01 0.301D+00-0.826D+00
 Coeff:      0.135D+01-0.166D+01 0.188D+01
 Gap=     0.382 Goal=   None    Shift=    0.000
 RMSDP=1.93D-05 MaxDP=7.42D-05 DE=-1.52D-07 OVMax= 0.00D+00

 Cycle  10  Pass 1  IDiag  3:
 E=-0.112020905179335E-01 Delta-E=       -0.000000008287 Rises=F Damp=F
 DIIS: error= 7.77D-07 at cycle  10 NSaved=  10.
 NSaved=10 IEnMin=10 EnMin=-0.112020905179335E-01 IErMin=10 ErrMin= 7.77D-07
 ErrMax= 7.77D-07 EMaxC= 1.00D-01 BMatC= 2.36D-11 BMatP= 6.29D-10
 IDIUse=1 WtCom= 1.00D+00 WtEn= 0.00D+00
 Coeff-Com:  0.150D-04-0.155D-03-0.126D-02 0.191D-01-0.133D+00 0.364D+00
 Coeff-Com: -0.599D+00 0.758D+00-0.991D+00 0.158D+01
 Coeff:      0.150D-04-0.155D-03-0.126D-02 0.191D-01-0.133D+00 0.364D+00
 Coeff:     -0.599D+00 0.758D+00-0.991D+00 0.158D+01
 Gap=     0.382 Goal=   None    Shift=    0.000
 RMSDP=2.44D-06 MaxDP=8.74D-06 DE=-8.29D-09 OVMax= 0.00D+00

 Cycle  11  Pass 1  IDiag  3:
 E=-0.112020907168926E-01 Delta-E=       -0.000000000199 Rises=F Damp=F
 DIIS: error= 1.97D-07 at cycle  11 NSaved=  11.
 NSaved=11 IEnMin=11 EnMin=-0.112020907168926E-01 IErMin=11 ErrMin= 1.97D-07
 ErrMax= 1.97D-07 EMaxC= 1.00D-01 BMatC= 1.21D-12 BMatP= 2.36D-11
 IDIUse=1 WtCom= 1.00D+00 WtEn= 0.00D+00
 Coeff-Com: -0.692D-05 0.709D-04 0.592D-03-0.875D-02 0.605D-01-0.167D+00
 Coeff-Com:  0.278D+00-0.359D+00 0.490D+00-0.920D+00 0.163D+01
 Coeff:     -0.692D-05 0.709D-04 0.592D-03-0.875D-02 0.605D-01-0.167D+00
 Coeff:      0.278D+00-0.359D+00 0.490D+00-0.920D+00 0.163D+01
 Gap=     0.382 Goal=   None    Shift=    0.000
 RMSDP=3.91D-07 MaxDP=1.33D-06 DE=-1.99D-10 OVMax= 0.00D+00

 Cycle  12  Pass 1  IDiag  3:
 E=-0.112020907252841E-01 Delta-E=       -0.000000000008 Rises=F Damp=F
 DIIS: error= 4.68D-08 at cycle  12 NSaved=  12.
 NSaved=12 IEnMin=12 EnMin=-0.112020907252841E-01 IErMin=12 ErrMin= 4.68D-08
 ErrMax= 4.68D-08 EMaxC= 1.00D-01 BMatC= 7.04D-14 BMatP= 1.21D-12
 IDIUse=1 WtCom= 1.00D+00 WtEn= 0.00D+00
 Coeff-Com:  0.124D-05-0.127D-04-0.116D-03 0.161D-02-0.111D-01 0.308D-01
 Coeff-Com: -0.525D-01 0.705D-01-0.102D+00 0.220D+00-0.557D+00 0.140D+01
 Coeff:      0.124D-05-0.127D-04-0.116D-03 0.161D-02-0.111D-01 0.308D-01
 Coeff:     -0.525D-01 0.705D-01-0.102D+00 0.220D+00-0.557D+00 0.140D+01
 Gap=     0.382 Goal=   None    Shift=    0.000
 RMSDP=8.45D-08 MaxDP=3.25D-07 DE=-8.39D-12 OVMax= 0.00D+00

 Cycle  13  Pass 1  IDiag  3:
 E=-0.112020907257744E-01 Delta-E=        0.000000000000 Rises=F Damp=F
 DIIS: error= 1.69D-08 at cycle  13 NSaved=  13.
 NSaved=13 IEnMin=13 EnMin=-0.112020907257744E-01 IErMin=13 ErrMin= 1.69D-08
 ErrMax= 1.69D-08 EMaxC= 1.00D-01 BMatC= 6.82D-15 BMatP= 7.04D-14
 IDIUse=1 WtCom= 1.00D+00 WtEn= 0.00D+00
 Coeff-Com:  0.200D-07-0.420D-06-0.277D-05 0.827D-04-0.558D-03 0.141D-02
 Coeff-Com: -0.170D-02 0.794D-03 0.200D-02-0.157D-01 0.895D-01-0.613D+00
 Coeff-Com:  0.154D+01
 Coeff:      0.200D-07-0.420D-06-0.277D-05 0.827D-04-0.558D-03 0.141D-02
 Coeff:     -0.170D-02 0.794D-03 0.200D-02-0.157D-01 0.895D-01-0.613D+00
 Coeff:      0.154D+01
 Gap=     0.382 Goal=   None    Shift=    0.000
 RMSDP=3.14D-08 MaxDP=1.34D-07 DE=-4.90D-13 OVMax= 0.00D+00

 Cycle  14  Pass 1  IDiag  3:
 E=-0.112020907258099E-01 Delta-E=        0.000000000000 Rises=F Damp=F
 DIIS: error= 2.75D-09 at cycle  14 NSaved=  14.
 NSaved=14 IEnMin=14 EnMin=-0.112020907258099E-01 IErMin=14 ErrMin= 2.75D-09
 ErrMax= 2.75D-09 EMaxC= 1.00D-01 BMatC= 2.31D-16 BMatP= 6.82D-15
 IDIUse=1 WtCom= 1.00D+00 WtEn= 0.00D+00
 Coeff-Com: -0.208D-07 0.277D-06 0.975D-06-0.400D-04 0.276D-03-0.697D-03
 Coeff-Com:  0.811D-03-0.285D-03-0.125D-02 0.852D-02-0.456D-01 0.333D+00
 Coeff-Com: -0.923D+00 0.163D+01
 Coeff:     -0.208D-07 0.277D-06 0.975D-06-0.400D-04 0.276D-03-0.697D-03
 Coeff:      0.811D-03-0.285D-03-0.125D-02 0.852D-02-0.456D-01 0.333D+00
 Coeff:     -0.923D+00 0.163D+01
 Gap=     0.382 Goal=   None    Shift=    0.000
 RMSDP=5.01D-09 MaxDP=2.08D-08 DE=-3.55D-14 OVMax= 0.00D+00

 Cycle  15  Pass 2  IDiag  1:
 RMSDP=5.01D-09 MaxDP=2.08D-08 DE=-3.55D-14 OVMax= 0.00D+00

 SCF Done:  E(RPM3) = -0.112020907258E-01 A.U. after   15 cycles
             Convg  =    0.5007D-08             -V/T =  0.9998
 KE=-4.662590565605D+01 PE=-6.152036828567D+01 EE= 4.715184632869D+01
 Leave Link  502 at Mon Jan  7 22:11:02 2013, MaxMem=  134217728 cpu:       0.1
 (Enter /Users/talipovmr/usr/local/g09/l801.exe)
 Range of M.O.s used for correlation:     1    13
 NBasis=    13 NAE=     9 NBE=     9 NFC=     0 NFV=     0
 NROrb=     13 NOA=     9 NOB=     9 NVA=     4 NVB=     4
 Leave Link  801 at Mon Jan  7 22:11:02 2013, MaxMem=  134217728 cpu:       0.1
 (Enter /Users/talipovmr/usr/local/g09/l1101.exe)
 Using compressed storage, NAtomX=     4.
 Will process   5 centers per pass.
 Leave Link 1101 at Mon Jan  7 22:11:02 2013, MaxMem=  134217728 cpu:       0.1
 (Enter /Users/talipovmr/usr/local/g09/l1102.exe)
 Symmetrizing basis deriv contribution to polar:
 IMax=3 JMax=2 DiffMx= 0.00D+00
 Leave Link 1102 at Mon Jan  7 22:11:02 2013, MaxMem=  134217728 cpu:       0.1
 (Enter /Users/talipovmr/usr/local/g09/l1110.exe)
 Forming Gx(P) for the SCF density, NAtomX=     4.
 Integral derivatives from FoFDir/FoFCou, PRISM(SPDF).
 Do as many integral derivatives as possible in FoFDir.
 G2DrvN: MDV=     134158701.
 G2DrvN: will do     5 centers at a time, making    1 passes doing MaxLOS=1.
 Calling FoFCou, ICntrl=  3107 FMM=F I1Cent=   0 AccDes= 0.00D+00.
 FoFCou: FMM=F IPFlag=           0 FMFlag=      100000 FMFlg1=           0
         NFxFlg=           0 DoJE=F BraDBF=F KetDBF=F FulRan=T
         Omega=  0.000000  0.000000  1.000000  0.000000  0.000000 ICntrl=    3107 IOpCl=  0
         NMat0=    1 NMatS0=    1 NMatT0=    0 NMatD0=    1 NMtDS0=    0 NMtDT0=    0
         I1Cent=           0 NGrid=           0.
 Symmetry not used in FoFCou.
 FoFDir/FoFCou used for L=0 through L=1.
 End of G2Drv Frequency-dependent properties file   721 does not exist.
 End of G2Drv Frequency-dependent properties file   722 does not exist.
 Leave Link 1110 at Mon Jan  7 22:11:02 2013, MaxMem=  134217728 cpu:       0.1
 (Enter /Users/talipovmr/usr/local/g09/l1002.exe)
 Minotr:  Closed shell wavefunction.
          IDoAtm=1111
          Direct CPHF calculation.
          Differentiating once with respect to nuclear coordinates.
          Electric field/nuclear overlap derivatives assumed to be zero.
          Requested convergence is 1.0D-06 RMS, and 1.0D-05 maximum.
          NewPWx=T KeepS1=F KeepF1=F KeepIn=T MapXYZ=F SortEE=F KeepMc=T.
          MDV=     134158793 using IRadAn=       2.
          Keep J ints in memory in canonical form, NReq=800947.
 Symmetry not used in FoFDir.
 MinBra= 0 MaxBra= 1 Meth= 9.
 IRaf=       0 NMat=   1 IRICut=       1 DoRegI=T DoRafI=F ISym2E= 0 JSym2E=0.
          Solving linear equations separately, MaxMat=       0.
          There are    15 degrees of freedom in the 1st order CPHF.  IDoFFX=5.
 LinEq1:  Iter=  0 NonCon=    12 RMS=6.35D-02 Max=1.90D-01
 AX will form    12 AO Fock derivatives at one time.
 LinEq1:  Iter=  1 NonCon=    12 RMS=9.77D-03 Max=4.35D-02
 LinEq1:  Iter=  2 NonCon=    12 RMS=1.90D-03 Max=7.09D-03
 LinEq1:  Iter=  3 NonCon=    12 RMS=3.53D-04 Max=1.13D-03
 LinEq1:  Iter=  4 NonCon=    12 RMS=7.16D-05 Max=2.58D-04
 LinEq1:  Iter=  5 NonCon=    12 RMS=1.19D-05 Max=3.20D-05
 LinEq1:  Iter=  6 NonCon=     4 RMS=1.90D-06 Max=5.19D-06
 LinEq1:  Iter=  7 NonCon=     0 RMS=1.40D-07 Max=4.27D-07
 Linear equations converged to 1.000D-06 1.000D-05 after     7 iterations.
 End of Minotr Frequency-dependent properties file   721 does not exist.
 End of Minotr Frequency-dependent properties file   722 does not exist.
 Leave Link 1002 at Mon Jan  7 22:11:02 2013, MaxMem=  134217728 cpu:       0.1
 (Enter /Users/talipovmr/usr/local/g09/l601.exe)
 Copying SCF densities to generalized density rwf, IOpCl= 0 IROHF=0.

 **********************************************************************

            Population analysis using the SCF density.

 **********************************************************************

 Orbital symmetries:
       Occupied  (A) (A) (A) (A) (A) (A) (A) (A) (A)
       Virtual   (A) (A) (A) (A)
 The electronic state is 1-A.
 Alpha  occ. eigenvalues --   -1.39974  -1.30077  -0.84014  -0.71020  -0.65058
 Alpha  occ. eigenvalues --   -0.59047  -0.54944  -0.47744  -0.40253
 Alpha virt. eigenvalues --   -0.02072   0.07805   0.14874   0.21652
          Condensed to atoms (all electrons):
              1          2          3          4
     1  O    6.350063   0.000000   0.000000   0.000000
     2  N    0.000000   4.622643   0.000000   0.000000
     3  O    0.000000   0.000000   6.240962   0.000000
     4  H    0.000000   0.000000   0.000000   0.786331
 Mulliken atomic charges:
              1
     1  O   -0.350063
     2  N    0.377357
     3  O   -0.240962
     4  H    0.213669
 Sum of Mulliken atomic charges =   0.00000
 Mulliken charges with hydrogens summed into heavy atoms:
              1
     1  O   -0.136395
     2  N    0.377357
     3  O   -0.240962
 Sum of Mulliken charges with hydrogens summed into heavy atoms =   0.00000
 APT atomic charges:
              1
     1  O   -0.350063
     2  N    0.377357
     3  O   -0.240962
     4  H    0.213669
 Sum of APT charges=   0.00000
 APT Atomic charges with hydrogens summed into heavy atoms:
              1
     1  O   -0.136395
     2  N    0.377357
     3  O   -0.240962
     4  H    0.000000
 Sum of APT charges=   0.00000
 Charge=              0.0000 electrons
 Dipole moment (field-independent basis, Debye):
    X=             -0.5893    Y=             -0.1487    Z=              1.5095  Tot=              1.6273
 N-N= 6.098322552231D+01 E-N=-6.152036828472D+01  KE=-4.662590565605D+01
  Exact polarizability:   0.000   0.000   0.000   0.000   0.000   0.000
 Approx polarizability:  18.233  -2.733   6.529  -0.439  -0.327   4.389
 Leave Link  601 at Mon Jan  7 22:11:02 2013, MaxMem=  134217728 cpu:       0.1
 (Enter /Users/talipovmr/usr/local/g09/l701.exe)
 Compute integral second derivatives.
 ... and contract with generalized density number  0.
 Leave Link  701 at Mon Jan  7 22:11:03 2013, MaxMem=  134217728 cpu:       0.2
 (Enter /Users/talipovmr/usr/local/g09/l702.exe)
 L702 exits ... SP integral derivatives will be done elsewhere.
 Leave Link  702 at Mon Jan  7 22:11:03 2013, MaxMem=  134217728 cpu:       0.1
 (Enter /Users/talipovmr/usr/local/g09/l703.exe)
 Compute integral second derivatives, UseDBF=F ICtDFT=           0.
 Integral derivatives from FoFDir, PRISM(SPDF).
 Calling FoFJK, ICntrl=    100147 FMM=F ISym2X=0 I1Cent= 0 IOpClX= 0 NMat=1 NMatS=1 NMatT=0.
 FoFCou: FMM=F IPFlag=           0 FMFlag=      100000 FMFlg1=         800
         NFxFlg=           0 DoJE=F BraDBF=F KetDBF=F FulRan=T
         Omega=  0.000000  0.000000  1.000000  0.000000  0.000000 ICntrl=  100147 IOpCl=  0
         NMat0=    1 NMatS0=    1 NMatT0=    0 NMatD0=    1 NMtDS0=    0 NMtDT0=    0
         I1Cent=           0 NGrid=           0.
 Symmetry not used in FoFCou.
 Leave Link  703 at Mon Jan  7 22:11:03 2013, MaxMem=  134217728 cpu:       0.1
 (Enter /Users/talipovmr/usr/local/g09/l716.exe)
 Dipole        =-2.31844674D-01-5.84872594D-02 5.93895715D-01
 Polarizability= 0.00000000D+00 0.00000000D+00 0.00000000D+00
                 0.00000000D+00 0.00000000D+00 0.00000000D+00
 ***** Axes restored to original set *****
 -------------------------------------------------------------------
 Center     Atomic                   Forces (Hartrees/Bohr)
 Number     Number              X              Y              Z
 -------------------------------------------------------------------
      1        8          -0.003984400   -0.000495871   -0.020804023
      2        7          -0.032012915   -0.013324063    0.000168848
      3        8           0.033984897    0.011408883    0.001696605
      4        1           0.002012418    0.002411050    0.018938570
 -------------------------------------------------------------------
 Cartesian Forces:  Max     0.033984897 RMS     0.016602865
 Force constants in Cartesian coordinates: 
                1             2             3             4             5 
      1  0.128164D+00
      2 -0.847907D-01  0.127435D+00
      3 -0.188527D-01  0.691163D-01  0.480401D+00
      4 -0.672865D-02 -0.176375D-01 -0.136873D-01  0.928396D+00
      5  0.390409D-01 -0.127314D+00  0.477582D-03  0.317611D+00  0.362778D+00
      6 -0.176529D-01  0.391908D-02 -0.178305D-01 -0.947603D-02  0.222387D-01
      7 -0.961420D-01  0.747909D-01  0.124816D-01 -0.917269D+00 -0.373273D+00
      8  0.203324D-01  0.389160D-01  0.159825D-02 -0.312940D+00 -0.207591D+00
      9  0.294081D-02  0.771552D-02 -0.374413D-02  0.298809D-02 -0.298025D-02
     10 -0.252682D-01  0.277023D-01  0.200536D-01 -0.445163D-02  0.165543D-01
     11  0.254182D-01 -0.390383D-01 -0.711888D-01  0.129404D-01 -0.278255D-01
     12  0.335627D-01 -0.807517D-01 -0.458821D+00  0.201504D-01 -0.197639D-01
                6             7             8             9            10 
      6  0.320746D-01
      7 -0.338862D-02  0.102854D+01
      8 -0.157717D-02  0.290332D+00  0.167501D+00
      9 -0.863916D-02 -0.613615D-02  0.169896D-02  0.128592D-01
     10  0.305461D-01 -0.150957D-01  0.229499D-02  0.198146D-03  0.448078D-01
     11 -0.246456D-01  0.816047D-02  0.112707D-02 -0.639809D-02 -0.465364D-01
     12 -0.562413D-02 -0.293813D-02 -0.170396D-02 -0.468381D-03 -0.507897D-01
               11            12 
     11  0.657358D-01
     12  0.102245D+00  0.464919D+00
 Force constants in internal coordinates: 
                1             2             3             4             5 
      1  0.194490D+00
      2  0.361824D-01  0.496167D+00
      3  0.132936D+00 -0.365663D-03  0.111666D+01
      4  0.668852D-01  0.420331D-01  0.280225D-01  0.210928D+00
      5  0.585581D-01  0.359800D-02  0.552965D-01  0.216399D-01  0.313993D+00
      6  0.204094D-02  0.369093D-02  0.944962D-02  0.185458D-01  0.177692D-01
                6 
      6 -0.142225D-01
 Leave Link  716 at Mon Jan  7 22:11:03 2013, MaxMem=  134217728 cpu:       0.2
 (Enter /Users/talipovmr/usr/local/g09/l103.exe)

 GradGradGradGradGradGradGradGradGradGradGradGradGradGradGradGradGradGrad
 Berny optimization.
 Internal  Forces:  Max     0.035848602 RMS     0.016825963
 Search for a saddle point.
 Step number   1 out of a maximum of   20
 All quantities printed in internal units (Hartrees-Bohrs-Radians)
 Swaping is turned off.
 Second derivative matrix not updated -- analytic derivatives used.
 The second derivative matrix:
                          R1        R2        R3        A1        A2
           R1           0.19449
           R2           0.03618   0.49617
           R3           0.13294  -0.00037   1.11666
           A1           0.06689   0.04203   0.02802   0.21093
           A2           0.05856   0.00360   0.05530   0.02164   0.31399
           D1           0.00204   0.00369   0.00945   0.01855   0.01777
                          D1
           D1          -0.01422
     Eigenvalues ---   -0.01678   0.12440   0.22462   0.33454   0.50915
     Eigenvalues ---    1.14208
 Eigenvectors required to have negative eigenvalues:
                          D1        A1        A2        R1        R3
   1                    0.99417  -0.08555  -0.05311   0.03765  -0.00800
                          R2
   1                   -0.00243
 RFO step:  Lambda0=5.839229729D-04 Lambda=-2.26321356D-03.
 Linear search not attempted -- option 19 set.
 Iteration  1 RMS(Cart)=  0.06424666 RMS(Int)=  0.00481367
 Iteration  2 RMS(Cart)=  0.00423279 RMS(Int)=  0.00001260
 Iteration  3 RMS(Cart)=  0.00001892 RMS(Int)=  0.00000000
 Iteration  4 RMS(Cart)=  0.00000000 RMS(Int)=  0.00000000
 Variable       Old X    -DE/DX   Delta X   Delta X   Delta X     New X
                                 (Linear)    (Quad)   (Total)
    R1        2.69719  -0.00273   0.00000  -0.00738  -0.00738   2.68981
    R2        1.83236  -0.01877   0.00000  -0.04090  -0.04090   1.79146
    R3        2.22714  -0.03585   0.00000  -0.03185  -0.03185   2.19530
    A1        1.78715   0.00642   0.00000   0.05896   0.05896   1.84611
    A2        1.93000   0.00026   0.00000   0.01432   0.01432   1.94432
    D1        1.51274   0.00354   0.00000  -0.17872  -0.17872   1.33402
         Item               Value     Threshold  Converged?
 Maximum Force            0.035849     0.000450     NO 
 RMS     Force            0.016826     0.000300     NO 
 Maximum Displacement     0.083650     0.001800     NO 
 RMS     Displacement     0.062923     0.001200     NO 
 Predicted change in Energy=-8.351722D-04
 GradGradGradGradGradGradGradGradGradGradGradGradGradGradGradGradGradGrad

 Leave Link  103 at Mon Jan  7 22:11:04 2013, MaxMem=  134217728 cpu:       0.2
 (Enter /Users/talipovmr/usr/local/g09/l202.exe)
                          Input orientation:                          
 ---------------------------------------------------------------------
 Center     Atomic      Atomic             Coordinates (Angstroms)
 Number     Number       Type             X           Y           Z
 ---------------------------------------------------------------------
      1          8           0        0.918136   -0.558207   -0.021795
      2          7           0       -0.007148    0.521381    0.044266
      3          8           0       -1.103579    0.145262   -0.032698
      4          1           0        0.956801   -0.808956   -0.935212
 ---------------------------------------------------------------------
                    Distance matrix (angstroms):
                    1          2          3          4
     1  O    0.000000
     2  N    1.423385   0.000000
     3  O    2.140635   1.161701   0.000000
     4  H    0.947998   1.912686   2.443405   0.000000
 Stoichiometry    HNO2
 Framework group  C1[X(HNO2)]
 Deg. of freedom     6
 Full point group                 C1      NOp   1
 Largest Abelian subgroup         C1      NOp   1
 Largest concise Abelian subgroup C1      NOp   1
                         Standard orientation:                         
 ---------------------------------------------------------------------
 Center     Atomic      Atomic             Coordinates (Angstroms)
 Number     Number       Type             X           Y           Z
 ---------------------------------------------------------------------
      1          8           0       -1.074448   -0.102229   -0.117185
      2          7           0        0.199167    0.506383    0.065906
      3          8           0        1.057633   -0.270768   -0.026938
      4          1           0       -1.259652   -0.560703    0.691642
 ---------------------------------------------------------------------
 Rotational constants (GHZ):     84.6620662     12.8856708     11.5444892
 Leave Link  202 at Mon Jan  7 22:11:04 2013, MaxMem=  134217728 cpu:       0.0
 (Enter /Users/talipovmr/usr/local/g09/l301.exe)
 Standard basis: VSTO-6G (5D, 7F)
 Ernie: Thresh=  0.10000D-02 Tol=  0.10000D-05 Strict=F.
  NNHCO=     0 NNPyr=     0 NCTC=     0               EPep=         0.000000000
    EC=        31.999822736  ECS=         1.103061727   EG=         0.088255030
   EHC=         0.000000000  EAt=       -27.538897446  AtH=         0.452933404
 EPDDG=         0.000000000  ECC=        33.191139494 EAtT=        27.991830850
 There are    13 symmetry adapted basis functions of A   symmetry.
 Integral buffers will be    131072 words long.
 Regular integral format.
 Two-electron integral symmetry is turned off.
    13 basis functions,    78 primitive gaussians,    13 cartesian basis functions
     9 alpha electrons        9 beta electrons
       nuclear repulsion energy        61.1829703445 Hartrees.
 IExCor=    0 DFT=F Ex=HF Corr=None ExCW=0 ScaHFX=  1.000000
 ScaDFX=  1.000000  1.000000  1.000000  1.000000 ScalE2=  1.000000  1.000000
 IRadAn=      0 IRanWt=     -1 IRanGd=            0 ICorTp=0
 Leave Link  301 at Mon Jan  7 22:11:04 2013, MaxMem=  134217728 cpu:       0.1
 (Enter /Users/talipovmr/usr/local/g09/l302.exe)
 Do NDO integrals.
 NPDir=0 NMtPBC=     1 NCelOv=     1 NCel=       1 NClECP=     1 NCelD=      1
         NCelK=      1 NCelE2=     1 NClLst=     1 CellRange=     0.0.
 One-electron integrals computed using PRISM.
 NBasis=    13 RedAO= F  NBF=    13
 NBsUse=    13 1.00D-04 NBFU=    13
 Leave Link  302 at Mon Jan  7 22:11:04 2013, MaxMem=  134217728 cpu:       0.2
 (Enter /Users/talipovmr/usr/local/g09/l303.exe)
 DipDrv:  MaxL=1.
 Leave Link  303 at Mon Jan  7 22:11:04 2013, MaxMem=  134217728 cpu:       0.1
 (Enter /Users/talipovmr/usr/local/g09/l401.exe)
 Initial guess read from the read-write file.
 B after Tr=     0.000000    0.000000    0.000000
         Rot=    1.000000    0.000000    0.000000    0.000000 Ang=   0.00 deg.
 Guess basis will be translated and rotated to current coordinates.
 Initial guess orbital symmetries:
       Occupied  (A) (A) (A) (A) (A) (A) (A) (A) (A)
       Virtual   (A) (A) (A) (A)
 The electronic state of the initial guess is 1-A.
 Leave Link  401 at Mon Jan  7 22:11:04 2013, MaxMem=  134217728 cpu:       0.2
 (Enter /Users/talipovmr/usr/local/g09/l502.exe)
 Closed shell SCF:
 Requested convergence on RMS density matrix=1.00D-08 within 128 cycles.
 Requested convergence on MAX density matrix=1.00D-06.
 Requested convergence on             energy=1.00D-06.
 No special actions if energy rises.
 Using DIIS extrapolation, IDIIS=  1040.
 Overlap will be assumed to be unity.
 Two-electron integral symmetry not used.
 Keep J ints in memory in canonical form, NReq=879130.
 IEnd=       78620 IEndB=       78620 NGot=   134217728 MDV=   134155687
 LenX=   134155687 LenY=   134154805
 Symmetry not used in FoFDir.
 MinBra= 0 MaxBra= 1 Meth= 9.
 IRaf=       0 NMat=   1 IRICut=       1 DoRegI=T DoRafI=F ISym2E= 0 JSym2E=0.

 Cycle   1  Pass 1  IDiag  1:
 E=-0.127567572865672E-02
 DIIS: error= 1.07D-02 at cycle   1 NSaved=   1.
 NSaved= 1 IEnMin= 1 EnMin=-0.127567572865672E-02 IErMin= 1 ErrMin= 1.07D-02
 ErrMax= 1.07D-02 EMaxC= 1.00D-01 BMatC= 1.78D-03 BMatP= 1.78D-03
 IDIUse=3 WtCom= 8.93D-01 WtEn= 1.07D-01
 Coeff-Com:  0.100D+01
 Coeff-En:   0.100D+01
 Coeff:      0.100D+01
 GapD=    2.000 DampG=2.000 DampE=0.500 DampFc=1.0000 IDamp=-1.
 RMSDP=6.44D-03 MaxDP=3.73D-02              OVMax= 0.00D+00

 Cycle   2  Pass 1  IDiag  3:
 E=-0.863072333145709E-02 Delta-E=       -0.007355047603 Rises=F Damp=F
 DIIS: error= 6.47D-03 at cycle   2 NSaved=   2.
 NSaved= 2 IEnMin= 2 EnMin=-0.863072333145709E-02 IErMin= 2 ErrMin= 6.47D-03
 ErrMax= 6.47D-03 EMaxC= 1.00D-01 BMatC= 4.62D-04 BMatP= 1.78D-03
 IDIUse=3 WtCom= 9.35D-01 WtEn= 6.47D-02
 Coeff-Com: -0.819D+00 0.182D+01
 Coeff-En:   0.000D+00 0.100D+01
 Coeff:     -0.766D+00 0.177D+01
 Gap=     0.384 Goal=   None    Shift=    0.000
 RMSDP=6.37D-03 MaxDP=3.78D-02 DE=-7.36D-03 OVMax= 0.00D+00

 Cycle   3  Pass 1  IDiag  3:
 E=-0.117105837833549E-01 Delta-E=       -0.003079860452 Rises=F Damp=F
 DIIS: error= 1.79D-03 at cycle   3 NSaved=   3.
 NSaved= 3 IEnMin= 3 EnMin=-0.117105837833549E-01 IErMin= 3 ErrMin= 1.79D-03
 ErrMax= 1.79D-03 EMaxC= 1.00D-01 BMatC= 3.53D-05 BMatP= 4.62D-04
 IDIUse=3 WtCom= 9.82D-01 WtEn= 1.79D-02
 Coeff-Com:  0.455D+00-0.122D+01 0.176D+01
 Coeff-En:   0.000D+00 0.000D+00 0.100D+01
 Coeff:      0.447D+00-0.120D+01 0.175D+01
 Gap=     0.384 Goal=   None    Shift=    0.000
 RMSDP=2.34D-03 MaxDP=1.31D-02 DE=-3.08D-03 OVMax= 0.00D+00

 Cycle   4  Pass 1  IDiag  3:
 E=-0.120006194036790E-01 Delta-E=       -0.000290035620 Rises=F Damp=F
 DIIS: error= 2.44D-04 at cycle   4 NSaved=   4.
 NSaved= 4 IEnMin= 4 EnMin=-0.120006194036790E-01 IErMin= 4 ErrMin= 2.44D-04
 ErrMax= 2.44D-04 EMaxC= 1.00D-01 BMatC= 1.76D-06 BMatP= 3.53D-05
 IDIUse=3 WtCom= 9.98D-01 WtEn= 2.44D-03
 Coeff-Com: -0.139D+00 0.395D+00-0.745D+00 0.149D+01
 Coeff-En:   0.000D+00 0.000D+00 0.000D+00 0.100D+01
 Coeff:     -0.139D+00 0.394D+00-0.743D+00 0.149D+01
 Gap=     0.384 Goal=   None    Shift=    0.000
 RMSDP=4.84D-04 MaxDP=1.92D-03 DE=-2.90D-04 OVMax= 0.00D+00

 Cycle   5  Pass 1  IDiag  3:
 E=-0.120142803162082E-01 Delta-E=       -0.000013660913 Rises=F Damp=F
 DIIS: error= 6.23D-05 at cycle   5 NSaved=   5.
 NSaved= 5 IEnMin= 5 EnMin=-0.120142803162082E-01 IErMin= 5 ErrMin= 6.23D-05
 ErrMax= 6.23D-05 EMaxC= 1.00D-01 BMatC= 1.39D-07 BMatP= 1.76D-06
 IDIUse=1 WtCom= 1.00D+00 WtEn= 0.00D+00
 Coeff-Com:  0.632D-03-0.874D-02 0.681D-01-0.471D+00 0.141D+01
 Coeff:      0.632D-03-0.874D-02 0.681D-01-0.471D+00 0.141D+01
 Gap=     0.384 Goal=   None    Shift=    0.000
 RMSDP=1.40D-04 MaxDP=4.62D-04 DE=-1.37D-05 OVMax= 0.00D+00

 Cycle   6  Pass 1  IDiag  3:
 E=-0.120154391347285E-01 Delta-E=       -0.000001158819 Rises=F Damp=F
 DIIS: error= 2.64D-05 at cycle   6 NSaved=   6.
 NSaved= 6 IEnMin= 6 EnMin=-0.120154391347285E-01 IErMin= 6 ErrMin= 2.64D-05
 ErrMax= 2.64D-05 EMaxC= 1.00D-01 BMatC= 1.90D-08 BMatP= 1.39D-07
 IDIUse=1 WtCom= 1.00D+00 WtEn= 0.00D+00
 Coeff-Com:  0.804D-02-0.171D-01-0.129D-01 0.336D+00-0.131D+01 0.200D+01
 Coeff:      0.804D-02-0.171D-01-0.129D-01 0.336D+00-0.131D+01 0.200D+01
 Gap=     0.384 Goal=   None    Shift=    0.000
 RMSDP=7.12D-05 MaxDP=2.62D-04 DE=-1.16D-06 OVMax= 0.00D+00

 Cycle   7  Pass 1  IDiag  3:
 E=-0.120156776160556E-01 Delta-E=       -0.000000238481 Rises=F Damp=F
 DIIS: error= 1.53D-05 at cycle   7 NSaved=   7.
 NSaved= 7 IEnMin= 7 EnMin=-0.120156776160556E-01 IErMin= 7 ErrMin= 1.53D-05
 ErrMax= 1.53D-05 EMaxC= 1.00D-01 BMatC= 3.36D-09 BMatP= 1.90D-08
 IDIUse=1 WtCom= 1.00D+00 WtEn= 0.00D+00
 Coeff-Com: -0.729D-02 0.160D-01 0.634D-02-0.264D+00 0.107D+01-0.189D+01
 Coeff-Com:  0.208D+01
 Coeff:     -0.729D-02 0.160D-01 0.634D-02-0.264D+00 0.107D+01-0.189D+01
 Coeff:      0.208D+01
 Gap=     0.384 Goal=   None    Shift=    0.000
 RMSDP=4.00D-05 MaxDP=1.76D-04 DE=-2.38D-07 OVMax= 0.00D+00

 Cycle   8  Pass 1  IDiag  3:
 E=-0.120157356978439E-01 Delta-E=       -0.000000058082 Rises=F Damp=F
 DIIS: error= 6.82D-06 at cycle   8 NSaved=   8.
 NSaved= 8 IEnMin= 8 EnMin=-0.120157356978439E-01 IErMin= 8 ErrMin= 6.82D-06
 ErrMax= 6.82D-06 EMaxC= 1.00D-01 BMatC= 7.39D-10 BMatP= 3.36D-09
 IDIUse=1 WtCom= 1.00D+00 WtEn= 0.00D+00
 Coeff-Com:  0.559D-02-0.125D-01-0.358D-02 0.197D+00-0.821D+00 0.157D+01
 Coeff-Com: -0.230D+01 0.236D+01
 Coeff:      0.559D-02-0.125D-01-0.358D-02 0.197D+00-0.821D+00 0.157D+01
 Coeff:     -0.230D+01 0.236D+01
 Gap=     0.384 Goal=   None    Shift=    0.000
 RMSDP=2.58D-05 MaxDP=1.06D-04 DE=-5.81D-08 OVMax= 0.00D+00

 Cycle   9  Pass 1  IDiag  3:
 E=-0.120157502723259E-01 Delta-E=       -0.000000014574 Rises=F Damp=F
 DIIS: error= 1.31D-06 at cycle   9 NSaved=   9.
 NSaved= 9 IEnMin= 9 EnMin=-0.120157502723259E-01 IErMin= 9 ErrMin= 1.31D-06
 ErrMax= 1.31D-06 EMaxC= 1.00D-01 BMatC= 4.84D-11 BMatP= 7.39D-10
 IDIUse=1 WtCom= 1.00D+00 WtEn= 0.00D+00
 Coeff-Com: -0.173D-02 0.390D-02 0.118D-02-0.616D-01 0.259D+00-0.514D+00
 Coeff-Com:  0.827D+00-0.112D+01 0.160D+01
 Coeff:     -0.173D-02 0.390D-02 0.118D-02-0.616D-01 0.259D+00-0.514D+00
 Coeff:      0.827D+00-0.112D+01 0.160D+01
 Gap=     0.384 Goal=   None    Shift=    0.000
 RMSDP=5.90D-06 MaxDP=2.12D-05 DE=-1.46D-08 OVMax= 0.00D+00

 Cycle  10  Pass 1  IDiag  3:
 E=-0.120157509853129E-01 Delta-E=       -0.000000000713 Rises=F Damp=F
 DIIS: error= 2.77D-07 at cycle  10 NSaved=  10.
 NSaved=10 IEnMin=10 EnMin=-0.120157509853129E-01 IErMin=10 ErrMin= 2.77D-07
 ErrMax= 2.77D-07 EMaxC= 1.00D-01 BMatC= 1.94D-12 BMatP= 4.84D-11
 IDIUse=1 WtCom= 1.00D+00 WtEn= 0.00D+00
 Coeff-Com:  0.156D-03-0.340D-03-0.319D-03 0.730D-02-0.311D-01 0.650D-01
 Coeff-Com: -0.115D+00 0.194D+00-0.486D+00 0.137D+01
 Coeff:      0.156D-03-0.340D-03-0.319D-03 0.730D-02-0.311D-01 0.650D-01
 Coeff:     -0.115D+00 0.194D+00-0.486D+00 0.137D+01
 Gap=     0.384 Goal=   None    Shift=    0.000
 RMSDP=6.82D-07 MaxDP=3.14D-06 DE=-7.13D-10 OVMax= 0.00D+00

 Cycle  11  Pass 1  IDiag  3:
 E=-0.120157510007317E-01 Delta-E=       -0.000000000015 Rises=F Damp=F
 DIIS: error= 8.59D-08 at cycle  11 NSaved=  11.
 NSaved=11 IEnMin=11 EnMin=-0.120157510007317E-01 IErMin=11 ErrMin= 8.59D-08
 ErrMax= 8.59D-08 EMaxC= 1.00D-01 BMatC= 1.34D-13 BMatP= 1.94D-12
 IDIUse=1 WtCom= 1.00D+00 WtEn= 0.00D+00
 Coeff-Com: -0.302D-04 0.651D-04 0.121D-03-0.188D-02 0.836D-02-0.189D-01
 Coeff-Com:  0.374D-01-0.760D-01 0.245D+00-0.873D+00 0.168D+01
 Coeff:     -0.302D-04 0.651D-04 0.121D-03-0.188D-02 0.836D-02-0.189D-01
 Coeff:      0.374D-01-0.760D-01 0.245D+00-0.873D+00 0.168D+01
 Gap=     0.384 Goal=   None    Shift=    0.000
 RMSDP=1.24D-07 MaxDP=6.51D-07 DE=-1.54D-11 OVMax= 0.00D+00

 Cycle  12  Pass 1  IDiag  3:
 E=-0.120157510016057E-01 Delta-E=       -0.000000000001 Rises=F Damp=F
 DIIS: error= 1.46D-08 at cycle  12 NSaved=  12.
 NSaved=12 IEnMin=12 EnMin=-0.120157510016057E-01 IErMin=12 ErrMin= 1.46D-08
 ErrMax= 1.46D-08 EMaxC= 1.00D-01 BMatC= 5.40D-15 BMatP= 1.34D-13
 IDIUse=1 WtCom= 1.00D+00 WtEn= 0.00D+00
 Coeff-Com:  0.856D-05-0.183D-04-0.546D-04 0.700D-03-0.321D-02 0.763D-02
 Coeff-Com: -0.159D-01 0.344D-01-0.117D+00 0.435D+00-0.953D+00 0.161D+01
 Coeff:      0.856D-05-0.183D-04-0.546D-04 0.700D-03-0.321D-02 0.763D-02
 Coeff:     -0.159D-01 0.344D-01-0.117D+00 0.435D+00-0.953D+00 0.161D+01
 Gap=     0.384 Goal=   None    Shift=    0.000
 RMSDP=2.64D-08 MaxDP=1.27D-07 DE=-8.74D-13 OVMax= 0.00D+00

 Cycle  13  Pass 1  IDiag  3:
 E=-0.120157510016128E-01 Delta-E=        0.000000000000 Rises=F Damp=F
 DIIS: error= 2.64D-09 at cycle  13 NSaved=  13.
 NSaved=13 IEnMin=13 EnMin=-0.120157510016128E-01 IErMin=13 ErrMin= 2.64D-09
 ErrMax= 2.64D-09 EMaxC= 1.00D-01 BMatC= 2.92D-16 BMatP= 5.40D-15
 IDIUse=1 WtCom= 1.00D+00 WtEn= 0.00D+00
 Coeff-Com: -0.446D-05 0.970D-05 0.333D-04-0.403D-03 0.190D-02-0.468D-02
 Coeff-Com:  0.102D-01-0.228D-01 0.793D-01-0.296D+00 0.651D+00-0.120D+01
 Coeff-Com:  0.179D+01
 Coeff:     -0.446D-05 0.970D-05 0.333D-04-0.403D-03 0.190D-02-0.468D-02
 Coeff:      0.102D-01-0.228D-01 0.793D-01-0.296D+00 0.651D+00-0.120D+01
 Coeff:      0.179D+01
 Gap=     0.384 Goal=   None    Shift=    0.000
 RMSDP=7.18D-09 MaxDP=2.54D-08 DE=-7.11D-15 OVMax= 0.00D+00

 Cycle  14  Pass 2  IDiag  1:
 RMSDP=7.18D-09 MaxDP=2.54D-08 DE=-7.11D-15 OVMax= 0.00D+00

 SCF Done:  E(RPM3) = -0.120157510016E-01 A.U. after   14 cycles
             Convg  =    0.7185D-08             -V/T =  0.9997
 KE=-4.668391684941D+01 PE=-6.178432315954D+01 EE= 4.727325391346D+01
 Leave Link  502 at Mon Jan  7 22:11:04 2013, MaxMem=  134217728 cpu:       0.1
 (Enter /Users/talipovmr/usr/local/g09/l701.exe)
 Compute integral first derivatives.
 ... and contract with generalized density number  0.
 Leave Link  701 at Mon Jan  7 22:11:04 2013, MaxMem=  134217728 cpu:       0.1
 (Enter /Users/talipovmr/usr/local/g09/l702.exe)
 L702 exits ... SP integral derivatives will be done elsewhere.
 Leave Link  702 at Mon Jan  7 22:11:04 2013, MaxMem=  134217728 cpu:       0.1
 (Enter /Users/talipovmr/usr/local/g09/l703.exe)
 Compute integral first derivatives, UseDBF=F ICtDFT=           0.
 Integral derivatives from FoFDir, PRISM(SPDF).
 Calling FoFJK, ICntrl=      2127 FMM=F ISym2X=0 I1Cent= 0 IOpClX= 0 NMat=1 NMatS=1 NMatT=0.
 FoFCou: FMM=F IPFlag=           0 FMFlag=      100000 FMFlg1=         800
         NFxFlg=           0 DoJE=F BraDBF=F KetDBF=F FulRan=T
         Omega=  0.000000  0.000000  1.000000  0.000000  0.000000 ICntrl=    2127 IOpCl=  0
         NMat0=    1 NMatS0=    1 NMatT0=    0 NMatD0=    1 NMtDS0=    0 NMtDT0=    0
         I1Cent=           0 NGrid=           0.
 Symmetry not used in FoFCou.
 Leave Link  703 at Mon Jan  7 22:11:05 2013, MaxMem=  134217728 cpu:       0.1
 (Enter /Users/talipovmr/usr/local/g09/l716.exe)
 Dipole        =-1.69838443D-01-1.79599165D-01 5.58886252D-01
 ***** Axes restored to original set *****
 -------------------------------------------------------------------
 Center     Atomic                   Forces (Hartrees/Bohr)
 Number     Number              X              Y              Z
 -------------------------------------------------------------------
      1        8          -0.000523619    0.001064967    0.001135879
      2        7           0.002408574    0.000094373    0.000303054
      3        8          -0.002084647   -0.000590113   -0.000162827
      4        1           0.000199692   -0.000569228   -0.001276106
 -------------------------------------------------------------------
 Cartesian Forces:  Max     0.002408574 RMS     0.001129652
 Leave Link  716 at Mon Jan  7 22:11:05 2013, MaxMem=  134217728 cpu:       0.1
 (Enter /Users/talipovmr/usr/local/g09/l103.exe)

 GradGradGradGradGradGradGradGradGradGradGradGradGradGradGradGradGradGrad
 Berny optimization.
 Internal  Forces:  Max     0.002169367 RMS     0.001098773
 Search for a saddle point.
 Step number   2 out of a maximum of   20
 All quantities printed in internal units (Hartrees-Bohrs-Radians)
 Swaping is turned off.
 Update second derivatives using D2CorX and points    1    2
 The second derivative matrix:
                          R1        R2        R3        A1        A2
           R1           0.19435
           R2           0.03563   0.49972
           R3           0.13256   0.00393   1.12149
           A1           0.06780   0.04042   0.02521   0.20969
           A2           0.05879   0.00344   0.05484   0.02111   0.31381
           D1          -0.00070   0.00988   0.01922   0.02096   0.01909
                          D1
           D1          -0.01733
     Eigenvalues ---   -0.02111   0.12372   0.22556   0.33510   0.51171
     Eigenvalues ---    1.14676
 Eigenvectors required to have negative eigenvalues:
                          D1        A1        R1        A2        R3
   1                    0.99099  -0.09892   0.06450  -0.05830  -0.01912
                          R2
   1                   -0.01501
 RFO step:  Lambda0=2.216785084D-06 Lambda=-1.52050671D-05.
 Linear search not attempted -- option 19 set.
 Iteration  1 RMS(Cart)=  0.00453027 RMS(Int)=  0.00002202
 Iteration  2 RMS(Cart)=  0.00001844 RMS(Int)=  0.00000000
 Iteration  3 RMS(Cart)=  0.00000000 RMS(Int)=  0.00000000
 Variable       Old X    -DE/DX   Delta X   Delta X   Delta X     New X
                                 (Linear)    (Quad)   (Total)
    R1        2.68981  -0.00058   0.00000  -0.00601  -0.00601   2.68380
    R2        1.79146   0.00139   0.00000   0.00279   0.00279   1.79425
    R3        2.19530   0.00217   0.00000   0.00236   0.00236   2.19766
    A1        1.84611   0.00045   0.00000   0.00211   0.00211   1.84821
    A2        1.94432   0.00026   0.00000   0.00068   0.00068   1.94500
    D1        1.33402  -0.00006   0.00000   0.01107   0.01107   1.34509
         Item               Value     Threshold  Converged?
 Maximum Force            0.002169     0.000450     NO 
 RMS     Force            0.001099     0.000300     NO 
 Maximum Displacement     0.006188     0.001800     NO 
 RMS     Displacement     0.004537     0.001200     NO 
 Predicted change in Energy=-6.494025D-06
 GradGradGradGradGradGradGradGradGradGradGradGradGradGradGradGradGradGrad

 Leave Link  103 at Mon Jan  7 22:11:05 2013, MaxMem=  134217728 cpu:       0.1
 (Enter /Users/talipovmr/usr/local/g09/l202.exe)
                          Input orientation:                          
 ---------------------------------------------------------------------
 Center     Atomic      Atomic             Coordinates (Angstroms)
 Number     Number       Type             X           Y           Z
 ---------------------------------------------------------------------
      1          8           0        0.915193   -0.558406   -0.021240
      2          7           0       -0.006211    0.520471    0.042164
      3          8           0       -1.104848    0.146032   -0.030310
      4          1           0        0.960076   -0.808617   -0.936054
 ---------------------------------------------------------------------
                    Distance matrix (angstroms):
                    1          2          3          4
     1  O    0.000000
     2  N    1.420204   0.000000
     3  O    2.139365   1.162952   0.000000
     4  H    0.949477   1.912354   2.448599   0.000000
 Stoichiometry    HNO2
 Framework group  C1[X(HNO2)]
 Deg. of freedom     6
 Full point group                 C1      NOp   1
 Largest Abelian subgroup         C1      NOp   1
 Largest concise Abelian subgroup C1      NOp   1
                         Standard orientation:                         
 ---------------------------------------------------------------------
 Center     Atomic      Atomic             Coordinates (Angstroms)
 Number     Number       Type             X           Y           Z
 ---------------------------------------------------------------------
      1          8           0       -1.072630   -0.103402   -0.117836
      2          7           0        0.197020    0.506039    0.065336
      3          8           0        1.058267   -0.270057   -0.026248
      4          1           0       -1.264236   -0.554599    0.695315
 ---------------------------------------------------------------------
 Rotational constants (GHZ):     84.7790842     12.8973878     11.5590697
 Leave Link  202 at Mon Jan  7 22:11:05 2013, MaxMem=  134217728 cpu:       0.0
 (Enter /Users/talipovmr/usr/local/g09/l301.exe)
 Standard basis: VSTO-6G (5D, 7F)
 Ernie: Thresh=  0.10000D-02 Tol=  0.10000D-05 Strict=F.
  NNHCO=     0 NNPyr=     0 NCTC=     0               EPep=         0.000000000
    EC=        32.006924313  ECS=         1.102226562   EG=         0.088715345
   EHC=         0.000000000  EAt=       -27.538897446  AtH=         0.452933404
 EPDDG=         0.000000000  ECC=        33.197866221 EAtT=        27.991830850
 There are    13 symmetry adapted basis functions of A   symmetry.
 Integral buffers will be    131072 words long.
 Regular integral format.
 Two-electron integral symmetry is turned off.
    13 basis functions,    78 primitive gaussians,    13 cartesian basis functions
     9 alpha electrons        9 beta electrons
       nuclear repulsion energy        61.1896970714 Hartrees.
 IExCor=    0 DFT=F Ex=HF Corr=None ExCW=0 ScaHFX=  1.000000
 ScaDFX=  1.000000  1.000000  1.000000  1.000000 ScalE2=  1.000000  1.000000
 IRadAn=      0 IRanWt=     -1 IRanGd=            0 ICorTp=0
 Leave Link  301 at Mon Jan  7 22:11:05 2013, MaxMem=  134217728 cpu:       0.1
 (Enter /Users/talipovmr/usr/local/g09/l302.exe)
 Do NDO integrals.
 NPDir=0 NMtPBC=     1 NCelOv=     1 NCel=       1 NClECP=     1 NCelD=      1
         NCelK=      1 NCelE2=     1 NClLst=     1 CellRange=     0.0.
 One-electron integrals computed using PRISM.
 NBasis=    13 RedAO= F  NBF=    13
 NBsUse=    13 1.00D-04 NBFU=    13
 Leave Link  302 at Mon Jan  7 22:11:05 2013, MaxMem=  134217728 cpu:       0.2
 (Enter /Users/talipovmr/usr/local/g09/l303.exe)
 DipDrv:  MaxL=1.
 Leave Link  303 at Mon Jan  7 22:11:05 2013, MaxMem=  134217728 cpu:       0.1
 (Enter /Users/talipovmr/usr/local/g09/l401.exe)
 Initial guess read from the read-write file.
 B after Tr=     0.000000    0.000000    0.000000
         Rot=    1.000000    0.000000    0.000000    0.000000 Ang=   0.00 deg.
 Guess basis will be translated and rotated to current coordinates.
 Initial guess orbital symmetries:
       Occupied  (A) (A) (A) (A) (A) (A) (A) (A) (A)
       Virtual   (A) (A) (A) (A)
 The electronic state of the initial guess is 1-A.
 Leave Link  401 at Mon Jan  7 22:11:05 2013, MaxMem=  134217728 cpu:       0.2
 (Enter /Users/talipovmr/usr/local/g09/l502.exe)
 Closed shell SCF:
 Requested convergence on RMS density matrix=1.00D-08 within 128 cycles.
 Requested convergence on MAX density matrix=1.00D-06.
 Requested convergence on             energy=1.00D-06.
 No special actions if energy rises.
 Using DIIS extrapolation, IDIIS=  1040.
 Overlap will be assumed to be unity.
 Two-electron integral symmetry not used.
 Keep J ints in memory in canonical form, NReq=879130.
 IEnd=       78620 IEndB=       78620 NGot=   134217728 MDV=   134155687
 LenX=   134155687 LenY=   134154805
 Symmetry not used in FoFDir.
 MinBra= 0 MaxBra= 1 Meth= 9.
 IRaf=       0 NMat=   1 IRICut=       1 DoRegI=T DoRafI=F ISym2E= 0 JSym2E=0.

 Cycle   1  Pass 1  IDiag  1:
 E=-0.119851584277981E-01
 DIIS: error= 5.41D-04 at cycle   1 NSaved=   1.
 NSaved= 1 IEnMin= 1 EnMin=-0.119851584277981E-01 IErMin= 1 ErrMin= 5.41D-04
 ErrMax= 5.41D-04 EMaxC= 1.00D-01 BMatC= 7.93D-06 BMatP= 7.93D-06
 IDIUse=3 WtCom= 9.95D-01 WtEn= 5.41D-03
 Coeff-Com:  0.100D+01
 Coeff-En:   0.100D+01
 Coeff:      0.100D+01
 RMSDP=3.83D-04 MaxDP=1.55D-03              OVMax= 0.00D+00

 Cycle   2  Pass 1  IDiag  3:
 E=-0.120121947610485E-01 Delta-E=       -0.000027036333 Rises=F Damp=F
 DIIS: error= 3.13D-04 at cycle   2 NSaved=   2.
 NSaved= 2 IEnMin= 2 EnMin=-0.120121947610485E-01 IErMin= 2 ErrMin= 3.13D-04
 ErrMax= 3.13D-04 EMaxC= 1.00D-01 BMatC= 1.44D-06 BMatP= 7.93D-06
 IDIUse=3 WtCom= 9.97D-01 WtEn= 3.13D-03
 Coeff-Com: -0.547D+00 0.155D+01
 Coeff-En:   0.000D+00 0.100D+01
 Coeff:     -0.545D+00 0.154D+01
 Gap=     0.384 Goal=   None    Shift=    0.000
 RMSDP=2.96D-04 MaxDP=1.48D-03 DE=-2.70D-05 OVMax= 0.00D+00

 Cycle   3  Pass 1  IDiag  3:
 E=-0.120204096593994E-01 Delta-E=       -0.000008214898 Rises=F Damp=F
 DIIS: error= 1.14D-04 at cycle   3 NSaved=   3.
 NSaved= 3 IEnMin= 3 EnMin=-0.120204096593994E-01 IErMin= 3 ErrMin= 1.14D-04
 ErrMax= 1.14D-04 EMaxC= 1.00D-01 BMatC= 1.53D-07 BMatP= 1.44D-06
 IDIUse=3 WtCom= 9.99D-01 WtEn= 1.14D-03
 Coeff-Com:  0.412D+00-0.136D+01 0.195D+01
 Coeff-En:   0.000D+00 0.000D+00 0.100D+01
 Coeff:      0.412D+00-0.136D+01 0.194D+01
 Gap=     0.384 Goal=   None    Shift=    0.000
 RMSDP=1.54D-04 MaxDP=8.38D-04 DE=-8.21D-06 OVMax= 0.00D+00

 Cycle   4  Pass 1  IDiag  3:
 E=-0.120216582249242E-01 Delta-E=       -0.000001248566 Rises=F Damp=F
 DIIS: error= 1.52D-05 at cycle   4 NSaved=   4.
 NSaved= 4 IEnMin= 4 EnMin=-0.120216582249242E-01 IErMin= 4 ErrMin= 1.52D-05
 ErrMax= 1.52D-05 EMaxC= 1.00D-01 BMatC= 6.08D-09 BMatP= 1.53D-07
 IDIUse=1 WtCom= 1.00D+00 WtEn= 0.00D+00
 Coeff-Com: -0.182D+00 0.609D+00-0.995D+00 0.157D+01
 Coeff:     -0.182D+00 0.609D+00-0.995D+00 0.157D+01
 Gap=     0.384 Goal=   None    Shift=    0.000
 RMSDP=3.02D-05 MaxDP=1.32D-04 DE=-1.25D-06 OVMax= 0.00D+00

 Cycle   5  Pass 1  IDiag  3:
 E=-0.120217077838589E-01 Delta-E=       -0.000000049559 Rises=F Damp=F
 DIIS: error= 3.20D-06 at cycle   5 NSaved=   5.
 NSaved= 5 IEnMin= 5 EnMin=-0.120217077838589E-01 IErMin= 5 ErrMin= 3.20D-06
 ErrMax= 3.20D-06 EMaxC= 1.00D-01 BMatC= 4.40D-10 BMatP= 6.08D-09
 IDIUse=1 WtCom= 1.00D+00 WtEn= 0.00D+00
 Coeff-Com:  0.427D-01-0.143D+00 0.246D+00-0.576D+00 0.143D+01
 Coeff:      0.427D-01-0.143D+00 0.246D+00-0.576D+00 0.143D+01
 Gap=     0.384 Goal=   None    Shift=    0.000
 RMSDP=7.83D-06 MaxDP=2.55D-05 DE=-4.96D-08 OVMax= 0.00D+00

 Cycle   6  Pass 1  IDiag  3:
 E=-0.120217116845964E-01 Delta-E=       -0.000000003901 Rises=F Damp=F
 DIIS: error= 1.87D-06 at cycle   6 NSaved=   6.
 NSaved= 6 IEnMin= 6 EnMin=-0.120217116845964E-01 IErMin= 6 ErrMin= 1.87D-06
 ErrMax= 1.87D-06 EMaxC= 1.00D-01 BMatC= 7.77D-11 BMatP= 4.40D-10
 IDIUse=1 WtCom= 1.00D+00 WtEn= 0.00D+00
 Coeff-Com: -0.299D-02 0.997D-02-0.218D-01 0.124D+00-0.709D+00 0.160D+01
 Coeff:     -0.299D-02 0.997D-02-0.218D-01 0.124D+00-0.709D+00 0.160D+01
 Gap=     0.384 Goal=   None    Shift=    0.000
 RMSDP=4.08D-06 MaxDP=1.53D-05 DE=-3.90D-09 OVMax= 0.00D+00

 Cycle   7  Pass 1  IDiag  3:
 E=-0.120217126254900E-01 Delta-E=       -0.000000000941 Rises=F Damp=F
 DIIS: error= 1.13D-06 at cycle   7 NSaved=   7.
 NSaved= 7 IEnMin= 7 EnMin=-0.120217126254900E-01 IErMin= 7 ErrMin= 1.13D-06
 ErrMax= 1.13D-06 EMaxC= 1.00D-01 BMatC= 2.03D-11 BMatP= 7.77D-11
 IDIUse=1 WtCom= 1.00D+00 WtEn= 0.00D+00
 Coeff-Com: -0.531D-02 0.178D-01-0.252D-01-0.204D-01 0.472D+00-0.171D+01
 Coeff-Com:  0.227D+01
 Coeff:     -0.531D-02 0.178D-01-0.252D-01-0.204D-01 0.472D+00-0.171D+01
 Coeff:      0.227D+01
 Gap=     0.384 Goal=   None    Shift=    0.000
 RMSDP=3.46D-06 MaxDP=1.48D-05 DE=-9.41D-10 OVMax= 0.00D+00

 Cycle   8  Pass 1  IDiag  3:
 E=-0.120217129951925E-01 Delta-E=       -0.000000000370 Rises=F Damp=F
 DIIS: error= 4.48D-07 at cycle   8 NSaved=   8.
 NSaved= 8 IEnMin= 8 EnMin=-0.120217129951925E-01 IErMin= 8 ErrMin= 4.48D-07
 ErrMax= 4.48D-07 EMaxC= 1.00D-01 BMatC= 3.37D-12 BMatP= 2.03D-11
 IDIUse=1 WtCom= 1.00D+00 WtEn= 0.00D+00
 Coeff-Com:  0.775D-02-0.261D-01 0.391D-01-0.265D-02-0.476D+00 0.196D+01
 Coeff-Com: -0.300D+01 0.251D+01
 Coeff:      0.775D-02-0.261D-01 0.391D-01-0.265D-02-0.476D+00 0.196D+01
 Coeff:     -0.300D+01 0.251D+01
 Gap=     0.384 Goal=   None    Shift=    0.000
 RMSDP=1.76D-06 MaxDP=7.13D-06 DE=-3.70D-10 OVMax= 0.00D+00

 Cycle   9  Pass 1  IDiag  3:
 E=-0.120217130602853E-01 Delta-E=       -0.000000000065 Rises=F Damp=F
 DIIS: error= 8.30D-08 at cycle   9 NSaved=   9.
 NSaved= 9 IEnMin= 9 EnMin=-0.120217130602853E-01 IErMin= 9 ErrMin= 8.30D-08
 ErrMax= 8.30D-08 EMaxC= 1.00D-01 BMatC= 1.95D-13 BMatP= 3.37D-12
 IDIUse=1 WtCom= 1.00D+00 WtEn= 0.00D+00
 Coeff-Com: -0.373D-02 0.125D-01-0.188D-01 0.171D-02 0.226D+00-0.936D+00
 Coeff-Com:  0.146D+01-0.142D+01 0.167D+01
 Coeff:     -0.373D-02 0.125D-01-0.188D-01 0.171D-02 0.226D+00-0.936D+00
 Coeff:      0.146D+01-0.142D+01 0.167D+01
 Gap=     0.384 Goal=   None    Shift=    0.000
 RMSDP=3.48D-07 MaxDP=1.28D-06 DE=-6.51D-11 OVMax= 0.00D+00

 Cycle  10  Pass 1  IDiag  3:
 E=-0.120217130629001E-01 Delta-E=       -0.000000000003 Rises=F Damp=F
 DIIS: error= 1.61D-08 at cycle  10 NSaved=  10.
 NSaved=10 IEnMin=10 EnMin=-0.120217130629001E-01 IErMin=10 ErrMin= 1.61D-08
 ErrMax= 1.61D-08 EMaxC= 1.00D-01 BMatC= 8.24D-15 BMatP= 1.95D-13
 IDIUse=1 WtCom= 1.00D+00 WtEn= 0.00D+00
 Coeff-Com:  0.178D-02-0.601D-02 0.898D-02-0.319D-06-0.115D+00 0.472D+00
 Coeff-Com: -0.736D+00 0.719D+00-0.952D+00 0.161D+01
 Coeff:      0.178D-02-0.601D-02 0.898D-02-0.319D-06-0.115D+00 0.472D+00
 Coeff:     -0.736D+00 0.719D+00-0.952D+00 0.161D+01
 Gap=     0.384 Goal=   None    Shift=    0.000
 RMSDP=4.04D-08 MaxDP=1.72D-07 DE=-2.61D-12 OVMax= 0.00D+00

 Cycle  11  Pass 1  IDiag  3:
 E=-0.120217130629712E-01 Delta-E=        0.000000000000 Rises=F Damp=F
 DIIS: error= 4.33D-09 at cycle  11 NSaved=  11.
 NSaved=11 IEnMin=11 EnMin=-0.120217130629712E-01 IErMin=11 ErrMin= 4.33D-09
 ErrMax= 4.33D-09 EMaxC= 1.00D-01 BMatC= 4.10D-16 BMatP= 8.24D-15
 IDIUse=1 WtCom= 1.00D+00 WtEn= 0.00D+00
 Coeff-Com: -0.849D-03 0.286D-02-0.427D-02-0.948D-04 0.555D-01-0.227D+00
 Coeff-Com:  0.354D+00-0.346D+00 0.461D+00-0.889D+00 0.159D+01
 Coeff:     -0.849D-03 0.286D-02-0.427D-02-0.948D-04 0.555D-01-0.227D+00
 Coeff:      0.354D+00-0.346D+00 0.461D+00-0.889D+00 0.159D+01
 Gap=     0.384 Goal=   None    Shift=    0.000
 RMSDP=7.50D-09 MaxDP=3.05D-08 DE=-7.11D-14 OVMax= 0.00D+00

 Cycle  12  Pass 2  IDiag  1:
 RMSDP=7.50D-09 MaxDP=3.05D-08 DE=-7.11D-14 OVMax= 0.00D+00

 SCF Done:  E(RPM3) = -0.120217130630E-01 A.U. after   12 cycles
             Convg  =    0.7500D-08             -V/T =  0.9997
 KE=-4.668504826906D+01 PE=-6.179822900787D+01 EE= 4.728155849245D+01
 Leave Link  502 at Mon Jan  7 22:11:05 2013, MaxMem=  134217728 cpu:       0.1
 (Enter /Users/talipovmr/usr/local/g09/l701.exe)
 Compute integral first derivatives.
 ... and contract with generalized density number  0.
 Leave Link  701 at Mon Jan  7 22:11:05 2013, MaxMem=  134217728 cpu:       0.1
 (Enter /Users/talipovmr/usr/local/g09/l702.exe)
 L702 exits ... SP integral derivatives will be done elsewhere.
 Leave Link  702 at Mon Jan  7 22:11:05 2013, MaxMem=  134217728 cpu:       0.1
 (Enter /Users/talipovmr/usr/local/g09/l703.exe)
 Compute integral first derivatives, UseDBF=F ICtDFT=           0.
 Integral derivatives from FoFDir, PRISM(SPDF).
 Calling FoFJK, ICntrl=      2127 FMM=F ISym2X=0 I1Cent= 0 IOpClX= 0 NMat=1 NMatS=1 NMatT=0.
 FoFCou: FMM=F IPFlag=           0 FMFlag=      100000 FMFlg1=         800
         NFxFlg=           0 DoJE=F BraDBF=F KetDBF=F FulRan=T
         Omega=  0.000000  0.000000  1.000000  0.000000  0.000000 ICntrl=    2127 IOpCl=  0
         NMat0=    1 NMatS0=    1 NMatT0=    0 NMatD0=    1 NMtDS0=    0 NMtDT0=    0
         I1Cent=           0 NGrid=           0.
 Symmetry not used in FoFCou.
 Leave Link  703 at Mon Jan  7 22:11:05 2013, MaxMem=  134217728 cpu:       0.1
 (Enter /Users/talipovmr/usr/local/g09/l716.exe)
 Dipole        =-1.81704658D-01-1.75815086D-01 5.61970159D-01
 ***** Axes restored to original set *****
 -------------------------------------------------------------------
 Center     Atomic                   Forces (Hartrees/Bohr)
 Number     Number              X              Y              Z
 -------------------------------------------------------------------
      1        8           0.000057305   -0.000046662   -0.000093715
      2        7          -0.000188389   -0.000029060    0.000007023
      3        8           0.000135663    0.000066205    0.000003105
      4        1          -0.000004579    0.000009516    0.000083587
 -------------------------------------------------------------------
 Cartesian Forces:  Max     0.000188389 RMS     0.000081916
 Leave Link  716 at Mon Jan  7 22:11:05 2013, MaxMem=  134217728 cpu:       0.1
 (Enter /Users/talipovmr/usr/local/g09/l103.exe)

 GradGradGradGradGradGradGradGradGradGradGradGradGradGradGradGradGradGrad
 Berny optimization.
 Internal  Forces:  Max     0.000149670 RMS     0.000076852
 Search for a saddle point.
 Step number   3 out of a maximum of   20
 All quantities printed in internal units (Hartrees-Bohrs-Radians)
 Swaping is turned off.
 Update second derivatives using D2CorX and points    1    2    3
 The second derivative matrix:
                          R1        R2        R3        A1        A2
           R1           0.19765
           R2           0.03197   0.50282
           R3           0.12626   0.00871   1.12846
           A1           0.06813   0.04074   0.02618   0.20924
           A2           0.06032   0.00258   0.05384   0.02065   0.31379
           D1          -0.00248   0.01361   0.02651   0.01948   0.01679
                          D1
           D1          -0.01897
     Eigenvalues ---   -0.02286   0.12608   0.22648   0.33747   0.51357
     Eigenvalues ---    1.15225
 Eigenvectors required to have negative eigenvalues:
                          D1        A1        R1        A2        R3
   1                    0.99107  -0.09292   0.07231  -0.05235  -0.02602
                          R2
   1                   -0.02217
 RFO step:  Lambda0=3.357950844D-09 Lambda=-7.51819137D-08.
 Linear search not attempted -- option 19 set.
 Iteration  1 RMS(Cart)=  0.00023988 RMS(Int)=  0.00000002
 Iteration  2 RMS(Cart)=  0.00000002 RMS(Int)=  0.00000000
 Variable       Old X    -DE/DX   Delta X   Delta X   Delta X     New X
                                 (Linear)    (Quad)   (Total)
    R1        2.68380   0.00006   0.00000   0.00048   0.00048   2.68428
    R2        1.79425  -0.00008   0.00000  -0.00020  -0.00020   1.79405
    R3        2.19766  -0.00015   0.00000  -0.00019  -0.00019   2.19747
    A1        1.84821   0.00002   0.00000  -0.00005  -0.00005   1.84816
    A2        1.94500   0.00004   0.00000   0.00006   0.00006   1.94506
    D1        1.34509  -0.00002   0.00000   0.00034   0.00034   1.34543
         Item               Value     Threshold  Converged?
 Maximum Force            0.000150     0.000450     YES
 RMS     Force            0.000077     0.000300     YES
 Maximum Displacement     0.000281     0.001800     YES
 RMS     Displacement     0.000240     0.001200     YES
 Predicted change in Energy=-3.591198D-08
 Optimization completed.
    -- Stationary point found.
                           ----------------------------
                           !   Optimized Parameters   !
                           ! (Angstroms and Degrees)  !
 --------------------------                            --------------------------
 ! Name  Definition              Value          Derivative Info.                !
 --------------------------------------------------------------------------------
 ! R1    R(1,2)                  1.4202         -DE/DX =    0.0001              !
 ! R2    R(1,4)                  0.9495         -DE/DX =   -0.0001              !
 ! R3    R(2,3)                  1.163          -DE/DX =   -0.0001              !
 ! A1    A(2,1,4)              105.8949         -DE/DX =    0.0                 !
 ! A2    A(1,2,3)              111.4402         -DE/DX =    0.0                 !
 ! D1    D(4,1,2,3)             77.0679         -DE/DX =    0.0                 !
 --------------------------------------------------------------------------------
 GradGradGradGradGradGradGradGradGradGradGradGradGradGradGradGradGradGrad

 Largest change from initial coordinates is atom    4       0.176 Angstoms.
 Leave Link  103 at Mon Jan  7 22:11:05 2013, MaxMem=  134217728 cpu:       0.0
 (Enter /Users/talipovmr/usr/local/g09/l202.exe)
                          Input orientation:                          
 ---------------------------------------------------------------------
 Center     Atomic      Atomic             Coordinates (Angstroms)
 Number     Number       Type             X           Y           Z
 ---------------------------------------------------------------------
      1          8           0        0.915193   -0.558406   -0.021240
      2          7           0       -0.006211    0.520471    0.042164
      3          8           0       -1.104848    0.146032   -0.030310
      4          1           0        0.960076   -0.808617   -0.936054
 ---------------------------------------------------------------------
                    Distance matrix (angstroms):
                    1          2          3          4
     1  O    0.000000
     2  N    1.420204   0.000000
     3  O    2.139365   1.162952   0.000000
     4  H    0.949477   1.912354   2.448599   0.000000
 Stoichiometry    HNO2
 Framework group  C1[X(HNO2)]
 Deg. of freedom     6
 Full point group                 C1      NOp   1
 Largest Abelian subgroup         C1      NOp   1
 Largest concise Abelian subgroup C1      NOp   1
                         Standard orientation:                         
 ---------------------------------------------------------------------
 Center     Atomic      Atomic             Coordinates (Angstroms)
 Number     Number       Type             X           Y           Z
 ---------------------------------------------------------------------
      1          8           0       -1.072630   -0.103402   -0.117836
      2          7           0        0.197020    0.506039    0.065336
      3          8           0        1.058267   -0.270057   -0.026248
      4          1           0       -1.264236   -0.554599    0.695315
 ---------------------------------------------------------------------
 Rotational constants (GHZ):     84.7790842     12.8973878     11.5590697
 Leave Link  202 at Mon Jan  7 22:11:05 2013, MaxMem=  134217728 cpu:       0.0
 (Enter /Users/talipovmr/usr/local/g09/l601.exe)
 Copying SCF densities to generalized density rwf, IOpCl= 0 IROHF=0.

 **********************************************************************

            Population analysis using the SCF density.

 **********************************************************************

 Orbital symmetries:
       Occupied  (A) (A) (A) (A) (A) (A) (A) (A) (A)
       Virtual   (A) (A) (A) (A)
 The electronic state is 1-A.
 Alpha  occ. eigenvalues --   -1.41548  -1.30946  -0.84349  -0.71778  -0.65089
 Alpha  occ. eigenvalues --   -0.59601  -0.54977  -0.47698  -0.40021
 Alpha virt. eigenvalues --   -0.01619   0.07956   0.15838   0.22402
          Condensed to atoms (all electrons):
              1          2          3          4
     1  O    6.359897   0.000000   0.000000   0.000000
     2  N    0.000000   4.609856   0.000000   0.000000
     3  O    0.000000   0.000000   6.242831   0.000000
     4  H    0.000000   0.000000   0.000000   0.787416
 Mulliken atomic charges:
              1
     1  O   -0.359897
     2  N    0.390144
     3  O   -0.242831
     4  H    0.212584
 Sum of Mulliken atomic charges =   0.00000
 Mulliken charges with hydrogens summed into heavy atoms:
              1
     1  O   -0.147313
     2  N    0.390144
     3  O   -0.242831
 Sum of Mulliken charges with hydrogens summed into heavy atoms =   0.00000
 Charge=              0.0000 electrons
 Dipole moment (field-independent basis, Debye):
    X=             -0.4618    Y=             -0.4469    Z=              1.4284  Tot=              1.5663
 N-N= 6.118969707142D+01 E-N=-6.179822900284D+01  KE=-4.668504826906D+01
 Leave Link  601 at Mon Jan  7 22:11:06 2013, MaxMem=  134217728 cpu:       0.1
 (Enter /Users/talipovmr/usr/local/g09/l9999.exe)
 1\1\GINC-MARAT-TALIPOVS-IMAC\FTS\RPM3\ZDO\H1N1O2\TALIPOVMR\07-Jan-2013
 \0\\#p pm3 opt(ts,calcfc,noeigentest) freq\\\0,1\O,0.9151932448,-0.558
 4056197,-0.0212396942\N,-0.0062113131,0.5204705166,0.0421643833\O,-1.1
 048476843,0.1460323548,-0.0303104899\H,0.9600757526,-0.8086172517,-0.9
 360541991\\Version=EM64M-G09RevA.02\State=1-A\HF=-0.0120217\RMSD=7.500
 e-09\RMSF=8.192e-05\Dipole=0.1291792,-0.0722597,-0.5981883\PG=C01 [X(H
 1N1O2)]\\@


 QUANTUM MECHANICS IS BOHRING -- M.S. GORDON
 Leave Link 9999 at Mon Jan  7 22:11:06 2013, MaxMem=  134217728 cpu:       0.1
 Job cpu time:  0 days  0 hours  0 minutes  5.9 seconds.
 File lengths (MBytes):  RWF=      5 Int=      0 D2E=      0 Chk=      2 Scr=      1
 Normal termination of Gaussian 09 at Mon Jan  7 22:11:06 2013.
 (Enter /Users/talipovmr/usr/local/g09/l1.exe)
 Link1:  Proceeding to internal job step number  2.
 -------------------------------------------------------------
 #P Geom=AllCheck Guess=TCheck SCRF=Check GenChk RPM3/ZDO Freq
 -------------------------------------------------------------
 1/5=1,10=4,11=1,18=20,29=7,30=1,38=1,40=1/1,3;
 2/9=110,12=2,40=1/2;
 3/5=2,14=-4,16=1,25=1,41=800000,70=2,71=2,116=1,135=40/1,2,3;
 4/5=101,35=1/1;
 5/5=2,35=1,98=1/2;
 8/6=4,10=90,11=11/1;
 11/6=1,8=1,9=11,15=111,16=1/1,2,10;
 10/6=1/2;
 6/7=2,8=2,9=2,10=2,18=1,28=1/1;
 7/8=1,10=1,25=1/1,2,3,16;
 1/5=1,10=4,11=1,18=20,30=1/3;
 99//99;
 Leave Link    1 at Mon Jan  7 22:11:06 2013, MaxMem=  134217728 cpu:       0.1
 (Enter /Users/talipovmr/usr/local/g09/l101.exe)

 

 Redundant internal coordinates taken from checkpoint file:
 ts.chk
 Charge =  0 Multiplicity = 1
 O,0,0.9151932448,-0.5584056197,-0.0212396942
 N,0,-0.0062113131,0.5204705166,0.0421643833
 O,0,-1.1048476843,0.1460323548,-0.0303104899
 H,0,0.9600757526,-0.8086172517,-0.9360541991
 Recover connectivity data from disk.
                    Isotopes and Nuclear Properties:
 (Nuclear quadrupole moments (NQMom) in fm**2, nuclear magnetic moments (NMagM)
  in nuclear magnetons)

  Atom         1           2           3           4
 IAtWgt=          16          14          16           1
 AtmWgt=  15.9949146  14.0030740  15.9949146   1.0078250
 NucSpn=           0           2           0           1
 AtZEff=  -6.0000000  -4.9000000  -6.0000000  -1.0000000
 NQMom=    0.0000000   2.0440000   0.0000000   0.0000000
 NMagM=    0.0000000   0.4037610   0.0000000   2.7928460
 Leave Link  101 at Mon Jan  7 22:11:06 2013, MaxMem=  134217728 cpu:       0.3
 (Enter /Users/talipovmr/usr/local/g09/l103.exe)

 GradGradGradGradGradGradGradGradGradGradGradGradGradGradGradGradGradGrad
 Berny optimization.
 Initialization pass.
                           ----------------------------
                           !    Initial Parameters    !
                           ! (Angstroms and Degrees)  !
 --------------------------                            --------------------------
 ! Name  Definition              Value          Derivative Info.                !
 --------------------------------------------------------------------------------
 ! R1    R(1,2)                  1.4202         calculate D2E/DX2 analytically  !
 ! R2    R(1,4)                  0.9495         calculate D2E/DX2 analytically  !
 ! R3    R(2,3)                  1.163          calculate D2E/DX2 analytically  !
 ! A1    A(2,1,4)              105.8949         calculate D2E/DX2 analytically  !
 ! A2    A(1,2,3)              111.4402         calculate D2E/DX2 analytically  !
 ! D1    D(4,1,2,3)             77.0679         calculate D2E/DX2 analytically  !
 --------------------------------------------------------------------------------
 Trust Radius=3.00D-01 FncErr=1.00D-07 GrdErr=1.00D-07
 Number of steps in this run=   2 maximum allowed number of steps=   2.
 Search for a saddle point of order  1.
 GradGradGradGradGradGradGradGradGradGradGradGradGradGradGradGradGradGrad

 Leave Link  103 at Mon Jan  7 22:11:06 2013, MaxMem=  134217728 cpu:       0.0
 (Enter /Users/talipovmr/usr/local/g09/l202.exe)
                          Input orientation:                          
 ---------------------------------------------------------------------
 Center     Atomic      Atomic             Coordinates (Angstroms)
 Number     Number       Type             X           Y           Z
 ---------------------------------------------------------------------
      1          8           0        0.915193   -0.558406   -0.021240
      2          7           0       -0.006211    0.520471    0.042164
      3          8           0       -1.104848    0.146032   -0.030310
      4          1           0        0.960076   -0.808617   -0.936054
 ---------------------------------------------------------------------
                    Distance matrix (angstroms):
                    1          2          3          4
     1  O    0.000000
     2  N    1.420204   0.000000
     3  O    2.139365   1.162952   0.000000
     4  H    0.949477   1.912354   2.448599   0.000000
 Stoichiometry    HNO2
 Framework group  C1[X(HNO2)]
 Deg. of freedom     6
 Full point group                 C1      NOp   1
 Largest Abelian subgroup         C1      NOp   1
 Largest concise Abelian subgroup C1      NOp   1
                         Standard orientation:                         
 ---------------------------------------------------------------------
 Center     Atomic      Atomic             Coordinates (Angstroms)
 Number     Number       Type             X           Y           Z
 ---------------------------------------------------------------------
      1          8           0       -1.072630   -0.103402   -0.117836
      2          7           0        0.197020    0.506039    0.065336
      3          8           0        1.058267   -0.270057   -0.026248
      4          1           0       -1.264236   -0.554599    0.695315
 ---------------------------------------------------------------------
 Rotational constants (GHZ):     84.7790842     12.8973878     11.5590697
 Leave Link  202 at Mon Jan  7 22:11:06 2013, MaxMem=  134217728 cpu:       0.0
[...]
 APT atomic charges:
              1
     1  O   -0.502243
     2  N    0.783833
     3  O   -0.467320
     4  H    0.185731
 Sum of APT charges=   0.00000
 APT Atomic charges with hydrogens summed into heavy atoms:
              1
     1  O   -0.316513
     2  N    0.783833
     3  O   -0.467320
     4  H    0.000000
 Sum of APT charges=   0.00000
 Charge=              0.0000 electrons
 Dipole moment (field-independent basis, Debye):
    X=             -0.4618    Y=             -0.4469    Z=              1.4284  Tot=              1.5663
 N-N= 6.118969707142D+01 E-N=-6.179822900681D+01  KE=-4.668504826454D+01
  Exact polarizability:  22.236  -1.355   8.430  -1.270  -0.962   6.581
 Approx polarizability:  18.086  -2.455   6.578  -0.520  -0.489   3.853
 Leave Link  601 at Mon Jan  7 22:11:07 2013, MaxMem=  134217728 cpu:       0.1
 (Enter /Users/talipovmr/usr/local/g09/l701.exe)
 Compute integral second derivatives.
 ... and contract with generalized density number  0.
 Leave Link  701 at Mon Jan  7 22:11:07 2013, MaxMem=  134217728 cpu:       0.1
 (Enter /Users/talipovmr/usr/local/g09/l702.exe)
 L702 exits ... SP integral derivatives will be done elsewhere.
 Leave Link  702 at Mon Jan  7 22:11:07 2013, MaxMem=  134217728 cpu:       0.1
 (Enter /Users/talipovmr/usr/local/g09/l703.exe)
 Compute integral second derivatives, UseDBF=F ICtDFT=           0.
 Integral derivatives from FoFDir, PRISM(SPDF).
 Calling FoFJK, ICntrl=    100127 FMM=F ISym2X=0 I1Cent= 0 IOpClX= 0 NMat=1 NMatS=1 NMatT=0.
 FoFCou: FMM=F IPFlag=           0 FMFlag=      100000 FMFlg1=         800
         NFxFlg=           0 DoJE=F BraDBF=F KetDBF=F FulRan=T
         Omega=  0.000000  0.000000  1.000000  0.000000  0.000000 ICntrl=  100127 IOpCl=  0
         NMat0=    1 NMatS0=    1 NMatT0=    0 NMatD0=    1 NMtDS0=    0 NMtDT0=    0
         I1Cent=           0 NGrid=           0.
 Symmetry not used in FoFCou.
 Leave Link  703 at Mon Jan  7 22:11:07 2013, MaxMem=  134217728 cpu:       0.1
 (Enter /Users/talipovmr/usr/local/g09/l716.exe)
 Dipole        =-1.81704668D-01-1.75815088D-01 5.61970161D-01
 Polarizability= 2.22361014D+01-1.35468627D+00 8.42989303D+00
                -1.27020809D+00-9.62443914D-01 6.58095200D+00
 HyperPolar    =-3.74019022D+01 2.89368905D+00-1.31020150D+01
                 2.88045063D+00 6.34662119D+00 2.94871676D+00
                 9.10725628D+00-1.51160723D+00-1.94582685D+01
                 1.75132205D+00
 Full mass-weighted force constant matrix:
 Low frequencies --- -461.2120   -1.3767   -0.5199   -0.0041    0.6172    5.4414
 Low frequencies ---   19.9383  576.1050  754.7047
 ******    1 imaginary frequencies (negative Signs) ****** 
 Diagonal vibrational polarizability:
       10.9549830       9.5365488       1.8741417
 Harmonic frequencies (cm**-1), IR intensities (KM/Mole), Raman scattering
 activities (A**4/AMU), depolarization ratios for plane and unpolarized
 incident light, reduced masses (AMU), force constants (mDyne/A),
 and normal coordinates:
                     1                      2                      3
                     A                      A                      A
 Frequencies --  -461.2113               576.1050               754.7047
 Red. masses --     1.2578                11.5030                11.1487
 Frc consts  --     0.1576                 2.2494                 3.7414
 IR Inten    --    82.1860                11.5108               196.6261
  Atom  AN      X      Y      Z        X      Y      Z        X      Y      Z
     1   8    -0.01   0.07   0.05     0.51  -0.14   0.00     0.43   0.26   0.07
     2   7    -0.02  -0.01  -0.09    -0.03   0.37   0.05    -0.54  -0.42  -0.07
     3   8     0.00  -0.01   0.05    -0.51  -0.17  -0.04     0.06   0.09  -0.01
     4   1     0.40  -0.83  -0.35     0.50  -0.18  -0.02    -0.29   0.42   0.04
                     4                      5                      6
                     A                      A                      A
 Frequencies --  1327.0543              2063.2321              3904.5131
 Red. masses --     1.1106                14.2884                 1.0632
 Frc consts  --     1.1523                35.8367                 9.5502
 IR Inten    --     6.1788               254.4346                23.6784
  Atom  AN      X      Y      Z        X      Y      Z        X      Y      Z
     1   8     0.03  -0.01   0.05     0.04   0.03   0.00    -0.01  -0.03   0.05
     2   7     0.04   0.02  -0.03     0.49  -0.54  -0.06     0.00   0.00   0.00
     3   8    -0.01   0.01   0.00    -0.48   0.44   0.05     0.00   0.00   0.00
     4   1    -0.91  -0.24  -0.34     0.20   0.04   0.03     0.23   0.48  -0.84

 -------------------
 - Thermochemistry -
 -------------------
 Temperature   298.150 Kelvin.  Pressure   1.00000 Atm.
 Atom     1 has atomic number  8 and mass  15.99491
 Atom     2 has atomic number  7 and mass  14.00307
 Atom     3 has atomic number  8 and mass  15.99491
 Atom     4 has atomic number  1 and mass   1.00783
 Molecular mass:    47.00073 amu.
 Principal axes and moments of inertia in atomic units:
                           1         2         3
     Eigenvalues --    21.28758 139.93075 156.13205
           X            0.99951   0.01885  -0.02519
           Y           -0.02105   0.99571  -0.09012
           Z            0.02338   0.09061   0.99561
 This molecule is an asymmetric top.
 Rotational symmetry number  1.
 Rotational temperatures (Kelvin)      4.06875     0.61898     0.55475
 Rotational constants (GHZ):          84.77908    12.89739    11.55907
    1 imaginary frequencies ignored.
 Zero-point vibrational energy      51592.6 (Joules/Mol)
                                   12.33093 (Kcal/Mol)
 Warning -- explicit consideration of   1 degrees of freedom as
           vibrations may cause significant error
 Vibrational temperatures:    828.89  1085.85  1909.33  2968.53  5617.72
          (Kelvin)
 
 Zero-point correction=                           0.019651 (Hartree/Particle)
 Thermal correction to Energy=                    0.022760
 Thermal correction to Enthalpy=                  0.023704
 Thermal correction to Gibbs Free Energy=        -0.004330
 Sum of electronic and zero-point Energies=              0.007629
 Sum of electronic and thermal Energies=                 0.010738
 Sum of electronic and thermal Enthalpies=               0.011682
 Sum of electronic and thermal Free Energies=           -0.016352
 
                     E (Thermal)             CV                S
                      KCal/Mol        Cal/Mol-Kelvin    Cal/Mol-Kelvin
 Total                   14.282              7.918             59.002
 Electronic               0.000              0.000              0.000
 Translational            0.889              2.981             37.468
 Rotational               0.889              2.981             20.769
 Vibrational             12.504              1.956              0.766
 Vibration     1          0.933              1.083              0.493
                       Q            Log10(Q)             Ln(Q)
 Total Bot       0.981037D+02          1.991685          4.586025
 Total V=0       0.107228D+12         11.030307         25.398221
 Vib (Bot)       0.100337D-08         -8.998539        -20.719901
 Vib (Bot)    1  0.265535D+00         -0.575878         -1.326008
 Vib (V=0)       0.109669D+01          0.040083          0.092294
 Vib (V=0)    1  0.106614D+01          0.027812          0.064040
 Electronic      0.100000D+01          0.000000          0.000000
 Translational   0.126652D+08          7.102612         16.354369
 Rotational      0.771991D+04          3.887612          8.951558
 
                                                                   
                                                             IR Spectrum
 
     3                                                           2                       1                                           
     9                                                           0                       3                  7     5                  
     0                                                           6                       2                  5     7                  
     5                                                           3                       7                  5     6                  
 
     X                                                           X                       X                  X     X                  
     X                                                           X                                          X                        
                                                                 X                                          X                        
                                                                 X                                          X                        
                                                                 X                                          X                        
                                                                 X                                          X                        
                                                                 X                                          X                        
                                                                 X                                          X                        
                                                                 X                                          X                        
                                                                 X                                          X                        
                                                                 X                                          X                        
                                                                 X                                          X                        
                                                                 X                                          X                        
                                                                 X                                          X                        
                                                                 X                                          X                        
                                                                 X                                                                   
                                                                 X                                                                   
                                                                 X                                                                   
                                                                 X                                                                   
                                                                 X                                                                   
 
 ***** Axes restored to original set *****
 -------------------------------------------------------------------
 Center     Atomic                   Forces (Hartrees/Bohr)
 Number     Number              X              Y              Z
 -------------------------------------------------------------------
      1        8           0.000057305   -0.000046662   -0.000093714
      2        7          -0.000188387   -0.000029058    0.000007026
      3        8           0.000135662    0.000066204    0.000003102
      4        1          -0.000004579    0.000009516    0.000083586
 -------------------------------------------------------------------
 Cartesian Forces:  Max     0.000188387 RMS     0.000081916
 Force constants in Cartesian coordinates: 
                1             2             3             4             5 
      1  0.135364D+00
      2 -0.900797D-01  0.117715D+00
      3  0.319120D-02  0.121959D+00  0.522386D+00
      4 -0.118384D-01 -0.172762D-01 -0.155048D-01  0.102295D+01
      5  0.426961D-01 -0.117791D+00 -0.176938D-01  0.366613D+00  0.363799D+00
      6 -0.156022D-01 -0.157587D-01 -0.197986D-01  0.610871D-01  0.744680D-01
      7 -0.104478D+00  0.782997D-01  0.145374D-01 -0.101441D+01 -0.422530D+00
      8  0.215087D-01  0.384113D-01  0.850047D-02 -0.359177D+00 -0.213530D+00
      9 -0.127843D-02  0.184702D-01 -0.252065D-02 -0.626518D-01 -0.417193D-01
     10 -0.190477D-01  0.290555D-01 -0.222372D-02  0.330626D-02  0.132211D-01
     11  0.258732D-01 -0.383361D-01 -0.112767D+00  0.984205D-02 -0.324802D-01
     12  0.136888D-01 -0.124671D+00 -0.500067D+00  0.170700D-01 -0.150559D-01
                6             7             8             9            10 
      6  0.214308D-01
      7 -0.766158D-01  0.113563D+01
      8 -0.365106D-01  0.336570D+00  0.172099D+00
      9  0.193312D-02  0.642552D-01  0.298946D-01  0.124622D-02
     10  0.311316D-01 -0.167410D-01  0.109904D-02 -0.326051D-03  0.324825D-01
     11 -0.221967D-01  0.766041D-02  0.302129D-02 -0.664701D-02 -0.433754D-01
     12 -0.356472D-02 -0.217712D-02 -0.188349D-02 -0.659488D-03 -0.285815D-01
               11            12 
     11  0.677956D-01
     12  0.141611D+00  0.504291D+00
 Force constants in internal coordinates: 
                1             2             3             4             5 
      1  0.197460D+00
      2  0.321102D-01  0.548520D+00
      3  0.142628D+00  0.180227D-03  0.124485D+01
      4  0.605004D-01  0.340381D-01  0.294675D-01  0.197116D+00
      5  0.665336D-01  0.310702D-02  0.606918D-01  0.162381D-01  0.327157D+00
      6 -0.654541D-02  0.468663D-02  0.106367D-01  0.188438D-01  0.186422D-01
                6 
      6 -0.157044D-01
 Leave Link  716 at Mon Jan  7 22:11:07 2013, MaxMem=  134217728 cpu:       0.1
 (Enter /Users/talipovmr/usr/local/g09/l103.exe)

 GradGradGradGradGradGradGradGradGradGradGradGradGradGradGradGradGradGrad
 Berny optimization.
 Internal  Forces:  Max     0.000149669 RMS     0.000076851
 Search for a saddle point.
 Step number   1 out of a maximum of    2
 All quantities printed in internal units (Hartrees-Bohrs-Radians)
 Swaping is turned off.
 Second derivative matrix not updated -- analytic derivatives used.
 The second derivative matrix:
                          R1        R2        R3        A1        A2
           R1           0.19746
           R2           0.03211   0.54852
           R3           0.14263   0.00018   1.24485
           A1           0.06050   0.03404   0.02947   0.19712
           A2           0.06653   0.00311   0.06069   0.01624   0.32716
           D1          -0.00655   0.00469   0.01064   0.01884   0.01864
                          D1
           D1          -0.01570
     Eigenvalues ---   -0.01959   0.12647   0.21820   0.34789   0.55589
     Eigenvalues ---    1.27054
 Eigenvectors required to have negative eigenvalues:
                          D1        A1        R1        A2        R3
   1                    0.98879  -0.10282   0.08705  -0.06276  -0.01273
                          R2
   1                   -0.00657
 Angle between quadratic step and forces=  63.82 degrees.
 Linear search not attempted -- option 19 set.
 Iteration  1 RMS(Cart)=  0.00029489 RMS(Int)=  0.00000004
 Iteration  2 RMS(Cart)=  0.00000003 RMS(Int)=  0.00000000
 Variable       Old X    -DE/DX   Delta X   Delta X   Delta X     New X
                                 (Linear)    (Quad)   (Total)
    R1        2.68380   0.00006   0.00000   0.00051   0.00051   2.68431
    R2        1.79425  -0.00008   0.00000  -0.00018  -0.00018   1.79407
    R3        2.19766  -0.00015   0.00000  -0.00018  -0.00018   2.19748
    A1        1.84821   0.00002   0.00000  -0.00007  -0.00007   1.84815
    A2        1.94500   0.00004   0.00000   0.00003   0.00003   1.94503
    D1        1.34509  -0.00002   0.00000   0.00055   0.00055   1.34564
         Item               Value     Threshold  Converged?
 Maximum Force            0.000150     0.000450     YES
 RMS     Force            0.000077     0.000300     YES
 Maximum Displacement     0.000375     0.001800     YES
 RMS     Displacement     0.000295     0.001200     YES
 Predicted change in Energy=-3.305305D-08
 Optimization completed.
    -- Stationary point found.
                           ----------------------------
                           !   Optimized Parameters   !
                           ! (Angstroms and Degrees)  !
 --------------------------                            --------------------------
 ! Name  Definition              Value          Derivative Info.                !
 --------------------------------------------------------------------------------
 ! R1    R(1,2)                  1.4202         -DE/DX =    0.0001              !
 ! R2    R(1,4)                  0.9495         -DE/DX =   -0.0001              !
 ! R3    R(2,3)                  1.163          -DE/DX =   -0.0001              !
 ! A1    A(2,1,4)              105.8949         -DE/DX =    0.0                 !
 ! A2    A(1,2,3)              111.4402         -DE/DX =    0.0                 !
 ! D1    D(4,1,2,3)             77.0679         -DE/DX =    0.0                 !
 --------------------------------------------------------------------------------
 GradGradGradGradGradGradGradGradGradGradGradGradGradGradGradGradGradGrad

 Leave Link  103 at Mon Jan  7 22:11:07 2013, MaxMem=  134217728 cpu:       0.0
 (Enter /Users/talipovmr/usr/local/g09/l9999.exe)
 1\1\GINC-MARAT-TALIPOVS-IMAC\Freq\RPM3\ZDO\H1N1O2\TALIPOVMR\07-Jan-201
 3\0\\#P Geom=AllCheck Guess=TCheck SCRF=Check GenChk RPM3/ZDO Freq\\\0
 ,1\O,0.9151932448,-0.5584056197,-0.0212396942\N,-0.0062113131,0.520470
 5166,0.0421643833\O,-1.1048476843,0.1460323548,-0.0303104899\H,0.96007
 57526,-0.8086172517,-0.9360541991\\Version=EM64M-G09RevA.02\State=1-A\
 HF=-0.0120217\RMSD=1.142e-09\RMSF=8.192e-05\ZeroPoint=0.0196506\Therma
 l=0.0227597\Dipole=0.1291792,-0.0722597,-0.5981883\DipoleDeriv=-0.7519
 267,-0.0034737,0.1655243,0.5518504,-0.6738693,-0.1374428,0.1786817,-0.
 1124645,-0.0809332,1.7262463,-0.6091205,-0.1625165,-0.2369907,0.603635
 6,0.102963,-0.0113385,0.1386723,0.0216157,-1.1775254,0.533725,0.071650
 7,-0.395202,-0.155205,0.0062298,-0.1200249,-0.0064613,-0.0692308,0.203
 2045,0.0788664,-0.0746576,0.0803449,0.2254365,0.028257,-0.0473184,-0.0
 197456,0.1285505\Polar=21.1617883,-3.9142894,8.713628,-1.1181288,1.779
 6398,7.3715301\HyperPolar=38.2896362,-2.1438614,9.2381744,-6.5959803,-
 2.598355,6.3525101,-1.881174,-4.0643659,-18.7949219,-18.79395\PG=C01 [
 X(H1N1O2)]\NImag=1\\0.13536373,-0.09007965,0.11771516,0.00319120,0.121
 95945,0.52238599,-0.01183836,-0.01727623,-0.01550478,1.02294713,0.0426
 9608,-0.11779109,-0.01769380,0.36661330,0.36379937,-0.01560220,-0.0157
 5865,-0.01979859,0.06108715,0.07446800,0.02143084,-0.10447817,0.078299
 67,0.01453743,-1.01441377,-0.42253045,-0.07661582,1.13563202,0.0215087
 1,0.03841132,0.00850047,-0.35917709,-0.21352993,-0.03651056,0.33656978
 ,0.17209930,-0.00127843,0.01847025,-0.00252065,-0.06265178,-0.04171927
 ,0.00193312,0.06425522,0.02989458,0.00124622,-0.01904766,0.02905553,-0
 .00222372,0.00330626,0.01322109,0.03113159,-0.01674097,0.00109904,-0.0
 0032605,0.03248246,0.02587317,-0.03833613,-0.11276693,0.00984205,-0.03
 248020,-0.02219667,0.00766041,0.00302129,-0.00664701,-0.04337539,0.067
 79564,0.01368877,-0.12467113,-0.50006675,0.01707004,-0.01505586,-0.003
 56472,-0.00217712,-0.00188349,-0.00065949,-0.02858149,0.14161064,0.504
 29108\\-0.00005730,0.00004666,0.00009371,0.00018839,0.00002906,-0.0000
 0703,-0.00013566,-0.00006620,-0.00000310,0.00000458,-0.00000952,-0.000
 08359\\\@


 WERE I TO AWAIT PERFECTION, MY BOOK WOULD NEVER BE FINISHED.
                                    -- HISTORY OF CHINESE WRITING

                                       TAI T'UNG, 13TH CENTURY
 Job cpu time:  0 days  0 hours  0 minutes  2.6 seconds.
 File lengths (MBytes):  RWF=      5 Int=      0 D2E=      0 Chk=      2 Scr=      1
 Normal termination of Gaussian 09 at Mon Jan  7 22:11:07 2013.
